REMARK SMILES CC(C)=CCCC(C)=CCOc1ccc2c(=O)cc(-c3ccco3)oc2c1
REMARK SMILES IDX 7 1 8 2 9 3 6 4 5 5 4 6 2 7 1 8 3 9 10 10 11 11 12 12 27 13
REMARK SMILES IDX 13 14 26 15 14 16 15 17 25 18 16 19 19 20 17 21 18 22 20 23
REMARK SMILES IDX 21 24 24 25 22 26 23 27
REMARK H PARENT
ROOT
ATOM      1  C   UNL     1      -2.354   0.187  -0.889  1.00  0.00    -0.074 C 
ATOM      2  C   UNL     1      -1.380  -0.493  -1.814  1.00  0.00    +0.039 C 
ATOM      3  C   UNL     1      -2.372   1.512  -0.636  1.00  0.00    +0.013 C 
ENDROOT
BRANCH   1   4
ATOM      4  C   UNL     1      -3.351  -0.735  -0.210  1.00  0.00    +0.034 C 
BRANCH   4   5
ATOM      5  C   UNL     1      -4.520  -1.117  -1.125  1.00  0.00    +0.032 C 
BRANCH   5   6
ATOM      6  C   UNL     1      -5.513  -1.993  -0.410  1.00  0.00    -0.028 C 
ATOM      7  C   UNL     1      -5.666  -3.327  -0.528  1.00  0.00    -0.080 C 
ATOM      8  C   UNL     1      -4.816  -4.221  -1.389  1.00  0.00    +0.039 C 
ATOM      9  C   UNL     1      -6.742  -4.048   0.241  1.00  0.00    +0.039 C 
ENDBRANCH   5   6
ENDBRANCH   4   5
ENDBRANCH   1   4
BRANCH   3  10
ATOM     10  C   UNL     1      -1.445   2.595  -1.126  1.00  0.00    +0.257 C 
BRANCH  10  11
ATOM     11  O   UNL     1      -0.102   2.161  -1.329  1.00  0.00    -0.489 OA
BRANCH  11  12
ATOM     12  C   UNL     1       0.745   2.109  -0.257  1.00  0.00    +0.123 A 
ATOM     13  C   UNL     1       2.077   1.834  -0.587  1.00  0.00    +0.094 A 
ATOM     14  C   UNL     1       0.392   2.282   1.083  1.00  0.00    +0.047 A 
ATOM     15  C   UNL     1       3.048   1.743   0.409  1.00  0.00    +0.142 A 
ATOM     16  C   UNL     1       1.365   2.192   2.085  1.00  0.00    +0.020 A 
ATOM     17  C   UNL     1       2.691   1.924   1.741  1.00  0.00    +0.065 A 
ATOM     18  O   UNL     1       4.334   1.474   0.013  1.00  0.00    -0.452 OA
ATOM     19  C   UNL     1       3.734   1.824   2.772  1.00  0.00    +0.193 C 
ATOM     20  C   UNL     1       5.312   1.378   0.989  1.00  0.00    +0.173 C 
ATOM     21  O   UNL     1       3.492   1.974   3.962  1.00  0.00    -0.289 OA
ATOM     22  C   UNL     1       5.097   1.532   2.302  1.00  0.00    +0.103 C 
BRANCH  20  23
ATOM     23  C   UNL     1       6.622   1.095   0.500  1.00  0.00    +0.169 A 
ATOM     24  C   UNL     1       7.056   0.899  -0.809  1.00  0.00    +0.054 A 
ATOM     25  O   UNL     1       7.732   0.963   1.314  1.00  0.00    -0.461 OA
ATOM     26  C   UNL     1       8.448   0.647  -0.782  1.00  0.00    +0.043 A 
ATOM     27  C   UNL     1       8.810   0.697   0.539  1.00  0.00    +0.196 A 
ENDBRANCH  20  23
ENDBRANCH  11  12
ENDBRANCH  10  11
ENDBRANCH   3  10
TORSDOF 7
