REMARK SMILES COC(=O)C(c1ccccc1Cl)N1CCc2sccc2C1
REMARK SMILES IDX 3 1 4 2 2 3 1 4 5 5 6 6 7 7 11 8 8 9 10 10 9 11 12 12 13 13
REMARK SMILES IDX 14 14 21 15 15 16 20 17 16 18 19 19 17 20 18 21
REMARK H PARENT
ROOT
ATOM      1  C   UNL     1      -1.209   1.597  -0.864  1.00  0.00    +0.327 C 
ATOM      2  O   UNL     1      -1.952   1.970  -1.770  1.00  0.00    -0.250 OA
ENDROOT
BRANCH   1   3
ATOM      3  O   UNL     1      -0.658   2.432   0.058  1.00  0.00    -0.468 OA
ATOM      4  C   UNL     1      -1.033   3.801  -0.080  1.00  0.00    +0.282 C 
ENDBRANCH   1   3
BRANCH   1   5
ATOM      5  C   UNL     1      -0.834   0.110  -0.649  1.00  0.00    +0.200 C 
BRANCH   5   6
ATOM      6  C   UNL     1      -1.942  -0.572   0.158  1.00  0.00    -0.001 A 
ATOM      7  C   UNL     1      -2.847  -1.397  -0.545  1.00  0.00    +0.007 A 
ATOM      8  C   UNL     1      -2.140  -0.409   1.541  1.00  0.00    +0.046 A 
ATOM      9  C   UNL     1      -3.899  -2.044   0.107  1.00  0.00    +0.000 A 
ATOM     10  C   UNL     1      -3.197  -1.063   2.189  1.00  0.00    +0.021 A 
ATOM     11  C   UNL     1      -4.073  -1.878   1.476  1.00  0.00    +0.002 A 
ATOM     12 Cl   UNL     1      -1.121   0.567   2.536  1.00  0.00    -0.084 Cl
ENDBRANCH   5   6
BRANCH   5  13
ATOM     13  N   UNL     1       0.561  -0.109  -0.143  1.00  0.00    -0.282 NA
ATOM     14  C   UNL     1       0.873  -1.557  -0.007  1.00  0.00    +0.091 C 
ATOM     15  C   UNL     1       1.548   0.540  -1.049  1.00  0.00    +0.122 C 
ATOM     16  C   UNL     1       2.216  -1.798   0.717  1.00  0.00    +0.062 C 
ATOM     17  C   UNL     1       2.955   0.201  -0.638  1.00  0.00    -0.020 A 
ATOM     18  C   UNL     1       3.253  -0.890   0.151  1.00  0.00    +0.010 A 
ATOM     19  C   UNL     1       4.144   0.902  -1.008  1.00  0.00    +0.017 A 
ATOM     20  S   UNL     1       4.913  -1.073   0.448  1.00  0.00    -0.149 S 
ATOM     21  C   UNL     1       5.278   0.317  -0.483  1.00  0.00    +0.065 A 
ENDBRANCH   5  13
ENDBRANCH   1   5
TORSDOF 4
