REMARK SMILES CCCc1nc2c(c(=O)n(C)c(=O)n2C)n1Cc1ccco1
REMARK SMILES IDX 4 1 5 2 6 3 7 4 16 5 8 6 9 7 10 8 11 9 12 10 13 11 14 12
REMARK SMILES IDX 15 13 3 14 2 15 1 16 17 17 18 18 19 19 22 20 20 21 21 22
REMARK H PARENT
ROOT
ATOM      1  C   UNL     1      -0.124   1.087  -0.604  1.00  0.00    +0.112 A 
ATOM      2  N   UNL     1      -1.229   0.691  -1.213  1.00  0.00    -0.215 NA
ATOM      3  C   UNL     1      -1.607  -0.440  -0.563  1.00  0.00    +0.168 A 
ATOM      4  C   UNL     1      -0.766  -0.747   0.461  1.00  0.00    +0.153 A 
ATOM      5  N   UNL     1       0.208   0.219   0.426  1.00  0.00    -0.314 N 
ATOM      6  C   UNL     1      -0.968  -1.871   1.311  1.00  0.00    +0.282 C 
ATOM      7  O   UNL     1      -0.280  -2.100   2.302  1.00  0.00    -0.267 OA
ATOM      8  N   UNL     1      -2.056  -2.661   0.922  1.00  0.00    -0.261 N 
ATOM      9  C   UNL     1      -2.344  -3.841   1.712  1.00  0.00    +0.159 C 
ATOM     10  C   UNL     1      -2.974  -2.344  -0.098  1.00  0.00    +0.332 C 
ATOM     11  O   UNL     1      -3.970  -3.045  -0.300  1.00  0.00    -0.247 OA
ATOM     12  N   UNL     1      -2.711  -1.204  -0.857  1.00  0.00    -0.279 N 
ATOM     13  C   UNL     1      -3.596  -0.816  -1.940  1.00  0.00    +0.157 C 
ENDROOT
BRANCH   1  14
ATOM     14  C   UNL     1       0.657   2.305  -0.979  1.00  0.00    +0.075 C 
BRANCH  14  15
ATOM     15  C   UNL     1       0.145   3.541  -0.241  1.00  0.00    +0.005 C 
ATOM     16  C   UNL     1       0.932   4.784  -0.624  1.00  0.00    +0.004 C 
ENDBRANCH  14  15
ENDBRANCH   1  14
BRANCH   5  17
ATOM     17  C   UNL     1       1.358   0.320   1.312  1.00  0.00    +0.199 C 
BRANCH  17  18
ATOM     18  C   UNL     1       2.556  -0.313   0.707  1.00  0.00    +0.123 A 
ATOM     19  C   UNL     1       3.776   0.176   0.285  1.00  0.00    +0.047 A 
ATOM     20  O   UNL     1       2.510  -1.664   0.517  1.00  0.00    -0.467 OA
ATOM     21  C   UNL     1       4.508  -0.935  -0.199  1.00  0.00    +0.042 A 
ATOM     22  C   UNL     1       3.694  -2.031  -0.035  1.00  0.00    +0.195 A 
ENDBRANCH  17  18
ENDBRANCH   5  17
TORSDOF 4
