MODEL 1
REMARK VINA RESULT:    -6.601      0.000      0.000
REMARK INTER + INTRA:         -11.762
REMARK INTER:                 -10.460
REMARK INTRA:                  -1.303
REMARK UNBOUND:                -1.303
REMARK SMILES CCN(CCCC(C)C1=Nc2ccccc2C1)C(=O)C(OC)c1ccc(F)cc1
REMARK SMILES IDX 3 1 2 2 1 3 4 4 5 5 6 6 7 7 8 8 9 9 10 10 17 11 11 12 16 13
REMARK SMILES IDX 12 14 15 15 13 16 14 17 18 18 19 19 20 20 21 21 22 22 23 23
REMARK SMILES IDX 24 24 29 25 25 26 28 27 26 28 27 29
REMARK H PARENT
ROOT
ATOM      1  N   UNL     1      14.463  27.350  12.239  1.00  0.00    -0.340 N 
ENDROOT
BRANCH   1   2
ATOM      2  C   UNL     1      13.696  27.959  13.333  1.00  0.00    +0.116 C 
ATOM      3  C   UNL     1      12.495  28.769  12.869  1.00  0.00    +0.027 C 
ENDBRANCH   1   2
BRANCH   1   4
ATOM      4  C   UNL     1      14.080  27.709  10.865  1.00  0.00    +0.119 C 
BRANCH   4   5
ATOM      5  C   UNL     1      15.027  28.683  10.155  1.00  0.00    +0.022 C 
BRANCH   5   6
ATOM      6  C   UNL     1      14.397  30.046   9.843  1.00  0.00    +0.011 C 
BRANCH   6   7
ATOM      7  C   UNL     1      14.886  31.200  10.736  1.00  0.00    +0.031 C 
ATOM      8  C   UNL     1      15.927  32.094  10.073  1.00  0.00    +0.014 C 
BRANCH   7   9
ATOM      9  C   UNL     1      13.702  31.991  11.244  1.00  0.00    +0.026 C 
ATOM     10  N   UNL     1      13.599  32.480  12.451  1.00  0.00    -0.257 NA
ATOM     11  C   UNL     1      12.538  32.330  10.311  1.00  0.00    +0.089 C 
ATOM     12  C   UNL     1      12.386  33.188  12.472  1.00  0.00    +0.066 A 
ATOM     13  C   UNL     1      11.720  33.148  11.245  1.00  0.00    -0.017 A 
ATOM     14  C   UNL     1      11.860  33.888  13.540  1.00  0.00    +0.028 A 
ATOM     15  C   UNL     1      10.519  33.803  11.044  1.00  0.00    +0.006 A 
ATOM     16  C   UNL     1      10.643  34.553  13.359  1.00  0.00    +0.002 A 
ATOM     17  C   UNL     1       9.979  34.511  12.120  1.00  0.00    +0.000 A 
ENDBRANCH   7   9
ENDBRANCH   6   7
ENDBRANCH   5   6
ENDBRANCH   4   5
ENDBRANCH   1   4
BRANCH   1  18
ATOM     18  C   UNL     1      15.549  26.477  12.406  1.00  0.00    +0.256 C 
ATOM     19  O   UNL     1      16.465  26.756  13.189  1.00  0.00    -0.271 OA
BRANCH  18  20
ATOM     20  C   UNL     1      15.616  25.156  11.564  1.00  0.00    +0.237 C 
BRANCH  20  21
ATOM     21  O   UNL     1      16.946  24.669  11.344  1.00  0.00    -0.367 OA
ATOM     22  C   UNL     1      17.573  25.266  10.219  1.00  0.00    +0.196 C 
ENDBRANCH  20  21
BRANCH  20  23
ATOM     23  C   UNL     1      14.886  24.017  12.263  1.00  0.00    -0.010 A 
ATOM     24  C   UNL     1      14.339  22.955  11.523  1.00  0.00    +0.010 A 
ATOM     25  C   UNL     1      14.774  23.995  13.665  1.00  0.00    +0.010 A 
ATOM     26  C   UNL     1      13.663  21.918  12.169  1.00  0.00    +0.039 A 
ATOM     27  C   UNL     1      14.110  22.951  14.310  1.00  0.00    +0.039 A 
ATOM     28  C   UNL     1      13.552  21.929  13.554  1.00  0.00    +0.123 A 
ATOM     29  F   UNL     1      12.896  20.936  14.171  1.00  0.00    -0.207 F 
ENDBRANCH  20  23
ENDBRANCH  18  20
ENDBRANCH   1  18
TORSDOF 10
ENDMDL
MODEL 2
REMARK VINA RESULT:    -6.494      3.368      9.031
REMARK INTER + INTRA:         -11.592
REMARK INTER:                 -10.506
REMARK INTRA:                  -1.086
REMARK UNBOUND:                -1.303
REMARK SMILES CCN(CCCC(C)C1=Nc2ccccc2C1)C(=O)C(OC)c1ccc(F)cc1
REMARK SMILES IDX 3 1 2 2 1 3 4 4 5 5 6 6 7 7 8 8 9 9 10 10 17 11 11 12 16 13
REMARK SMILES IDX 12 14 15 15 13 16 14 17 18 18 19 19 20 20 21 21 22 22 23 23
REMARK SMILES IDX 24 24 29 25 25 26 28 27 26 28 27 29
REMARK H PARENT
ROOT
ATOM      1  N   UNL     1      13.502  29.152  11.243  1.00  0.00    -0.340 N 
ENDROOT
BRANCH   1   2
ATOM      2  C   UNL     1      12.516  28.975  12.317  1.00  0.00    +0.116 C 
ATOM      3  C   UNL     1      13.000  28.099  13.462  1.00  0.00    +0.027 C 
ENDBRANCH   1   2
BRANCH   1   4
ATOM      4  C   UNL     1      14.287  27.972  10.848  1.00  0.00    +0.119 C 
BRANCH   4   5
ATOM      5  C   UNL     1      15.804  28.106  11.026  1.00  0.00    +0.022 C 
BRANCH   5   6
ATOM      6  C   UNL     1      16.463  26.887  11.683  1.00  0.00    +0.011 C 
BRANCH   6   7
ATOM      7  C   UNL     1      16.477  25.617  10.812  1.00  0.00    +0.031 C 
ATOM      8  C   UNL     1      17.869  25.039  10.588  1.00  0.00    +0.014 C 
BRANCH   7   9
ATOM      9  C   UNL     1      15.525  24.593  11.386  1.00  0.00    +0.026 C 
ATOM     10  N   UNL     1      14.826  23.750  10.675  1.00  0.00    -0.257 NA
ATOM     11  C   UNL     1      15.370  24.441  12.900  1.00  0.00    +0.089 C 
ATOM     12  C   UNL     1      14.137  22.950  11.602  1.00  0.00    +0.066 A 
ATOM     13  C   UNL     1      14.420  23.297  12.925  1.00  0.00    -0.017 A 
ATOM     14  C   UNL     1      13.280  21.907  11.313  1.00  0.00    +0.028 A 
ATOM     15  C   UNL     1      13.865  22.617  13.993  1.00  0.00    +0.006 A 
ATOM     16  C   UNL     1      12.703  21.209  12.379  1.00  0.00    +0.002 A 
ATOM     17  C   UNL     1      12.995  21.562  13.709  1.00  0.00    +0.000 A 
ENDBRANCH   7   9
ENDBRANCH   6   7
ENDBRANCH   5   6
ENDBRANCH   4   5
ENDBRANCH   1   4
BRANCH   1  18
ATOM     18  C   UNL     1      13.730  30.349  10.548  1.00  0.00    +0.256 C 
ATOM     19  O   UNL     1      13.631  30.388   9.314  1.00  0.00    -0.271 OA
BRANCH  18  20
ATOM     20  C   UNL     1      14.148  31.636  11.338  1.00  0.00    +0.237 C 
BRANCH  20  21
ATOM     21  O   UNL     1      15.088  32.469  10.648  1.00  0.00    -0.367 OA
ATOM     22  C   UNL     1      16.320  32.603  11.341  1.00  0.00    +0.196 C 
ENDBRANCH  20  21
BRANCH  20  23
ATOM     23  C   UNL     1      12.948  32.531  11.612  1.00  0.00    -0.010 A 
ATOM     24  C   UNL     1      12.782  33.146  12.865  1.00  0.00    +0.010 A 
ATOM     25  C   UNL     1      12.002  32.784  10.602  1.00  0.00    +0.010 A 
ATOM     26  C   UNL     1      11.674  33.960  13.111  1.00  0.00    +0.039 A 
ATOM     27  C   UNL     1      10.902  33.607  10.847  1.00  0.00    +0.039 A 
ATOM     28  C   UNL     1      10.744  34.179  12.102  1.00  0.00    +0.123 A 
ATOM     29  F   UNL     1       9.679  34.955  12.344  1.00  0.00    -0.207 F 
ENDBRANCH  20  23
ENDBRANCH  18  20
ENDBRANCH   1  18
TORSDOF 10
ENDMDL
MODEL 3
REMARK VINA RESULT:    -6.475      1.362      2.103
REMARK INTER + INTRA:         -11.564
REMARK INTER:                 -10.328
REMARK INTRA:                  -1.236
REMARK UNBOUND:                -1.303
REMARK SMILES CCN(CCCC(C)C1=Nc2ccccc2C1)C(=O)C(OC)c1ccc(F)cc1
REMARK SMILES IDX 3 1 2 2 1 3 4 4 5 5 6 6 7 7 8 8 9 9 10 10 17 11 11 12 16 13
REMARK SMILES IDX 12 14 15 15 13 16 14 17 18 18 19 19 20 20 21 21 22 22 23 23
REMARK SMILES IDX 24 24 29 25 25 26 28 27 26 28 27 29
REMARK H PARENT
ROOT
ATOM      1  N   UNL     1      15.757  26.956  11.621  1.00  0.00    -0.340 N 
ENDROOT
BRANCH   1   2
ATOM      2  C   UNL     1      17.092  27.562  11.520  1.00  0.00    +0.116 C 
ATOM      3  C   UNL     1      17.504  27.916  10.100  1.00  0.00    +0.027 C 
ENDBRANCH   1   2
BRANCH   1   4
ATOM      4  C   UNL     1      14.785  27.289  10.569  1.00  0.00    +0.119 C 
BRANCH   4   5
ATOM      5  C   UNL     1      13.867  28.477  10.878  1.00  0.00    +0.022 C 
BRANCH   5   6
ATOM      6  C   UNL     1      14.150  29.720  10.025  1.00  0.00    +0.011 C 
BRANCH   6   7
ATOM      7  C   UNL     1      14.728  30.916  10.802  1.00  0.00    +0.031 C 
ATOM      8  C   UNL     1      15.870  31.624  10.084  1.00  0.00    +0.014 C 
BRANCH   7   9
ATOM      9  C   UNL     1      13.616  31.870  11.174  1.00  0.00    +0.026 C 
ATOM     10  N   UNL     1      12.638  32.214  10.379  1.00  0.00    -0.257 NA
ATOM     11  C   UNL     1      13.538  32.460  12.582  1.00  0.00    +0.089 C 
ATOM     12  C   UNL     1      11.807  33.053  11.140  1.00  0.00    +0.066 A 
ATOM     13  C   UNL     1      12.273  33.230  12.445  1.00  0.00    -0.017 A 
ATOM     14  C   UNL     1      10.635  33.652  10.721  1.00  0.00    +0.028 A 
ATOM     15  C   UNL     1      11.589  34.000  13.368  1.00  0.00    +0.006 A 
ATOM     16  C   UNL     1       9.930  34.439  11.637  1.00  0.00    +0.002 A 
ATOM     17  C   UNL     1      10.404  34.610  12.950  1.00  0.00    +0.000 A 
ENDBRANCH   7   9
ENDBRANCH   6   7
ENDBRANCH   5   6
ENDBRANCH   4   5
ENDBRANCH   1   4
BRANCH   1  18
ATOM     18  C   UNL     1      15.351  26.065  12.625  1.00  0.00    +0.256 C 
ATOM     19  O   UNL     1      14.544  26.422  13.494  1.00  0.00    -0.271 OA
BRANCH  18  20
ATOM     20  C   UNL     1      15.954  24.619  12.667  1.00  0.00    +0.237 C 
BRANCH  20  21
ATOM     21  O   UNL     1      16.640  24.304  13.886  1.00  0.00    -0.367 OA
ATOM     22  C   UNL     1      17.933  24.885  13.958  1.00  0.00    +0.196 C 
ENDBRANCH  20  21
BRANCH  20  23
ATOM     23  C   UNL     1      14.866  23.562  12.538  1.00  0.00    -0.010 A 
ATOM     24  C   UNL     1      14.435  23.127  11.273  1.00  0.00    +0.010 A 
ATOM     25  C   UNL     1      14.297  22.980  13.685  1.00  0.00    +0.010 A 
ATOM     26  C   UNL     1      13.431  22.163  11.162  1.00  0.00    +0.039 A 
ATOM     27  C   UNL     1      13.303  22.008  13.571  1.00  0.00    +0.039 A 
ATOM     28  C   UNL     1      12.873  21.616  12.311  1.00  0.00    +0.123 A 
ATOM     29  F   UNL     1      11.904  20.697  12.200  1.00  0.00    -0.207 F 
ENDBRANCH  20  23
ENDBRANCH  18  20
ENDBRANCH   1  18
TORSDOF 10
ENDMDL
MODEL 4
REMARK VINA RESULT:    -6.131      3.181      8.756
REMARK INTER + INTRA:         -11.017
REMARK INTER:                  -9.718
REMARK INTRA:                  -1.300
REMARK UNBOUND:                -1.303
REMARK SMILES CCN(CCCC(C)C1=Nc2ccccc2C1)C(=O)C(OC)c1ccc(F)cc1
REMARK SMILES IDX 3 1 2 2 1 3 4 4 5 5 6 6 7 7 8 8 9 9 10 10 17 11 11 12 16 13
REMARK SMILES IDX 12 14 15 15 13 16 14 17 18 18 19 19 20 20 21 21 22 22 23 23
REMARK SMILES IDX 24 24 29 25 25 26 28 27 26 28 27 29
REMARK H PARENT
ROOT
ATOM      1  N   UNL     1      15.222  29.262  11.353  1.00  0.00    -0.340 N 
ENDROOT
BRANCH   1   2
ATOM      2  C   UNL     1      14.037  28.622  10.766  1.00  0.00    +0.116 C 
ATOM      3  C   UNL     1      12.777  28.768  11.605  1.00  0.00    +0.027 C 
ENDBRANCH   1   2
BRANCH   1   4
ATOM      4  C   UNL     1      16.522  28.614  11.120  1.00  0.00    +0.119 C 
BRANCH   4   5
ATOM      5  C   UNL     1      17.216  28.069  12.374  1.00  0.00    +0.022 C 
BRANCH   5   6
ATOM      6  C   UNL     1      16.921  26.591  12.655  1.00  0.00    +0.011 C 
BRANCH   6   7
ATOM      7  C   UNL     1      16.582  25.755  11.407  1.00  0.00    +0.031 C 
ATOM      8  C   UNL     1      17.806  25.274  10.637  1.00  0.00    +0.014 C 
BRANCH   7   9
ATOM      9  C   UNL     1      15.670  24.612  11.791  1.00  0.00    +0.026 C 
ATOM     10  N   UNL     1      15.358  24.292  13.018  1.00  0.00    -0.257 NA
ATOM     11  C   UNL     1      14.983  23.773  10.713  1.00  0.00    +0.089 C 
ATOM     12  C   UNL     1      14.447  23.228  12.914  1.00  0.00    +0.066 A 
ATOM     13  C   UNL     1      14.176  22.881  11.587  1.00  0.00    -0.017 A 
ATOM     14  C   UNL     1      13.830  22.566  13.957  1.00  0.00    +0.028 A 
ATOM     15  C   UNL     1      13.286  21.875  11.263  1.00  0.00    +0.006 A 
ATOM     16  C   UNL     1      12.930  21.541  13.650  1.00  0.00    +0.002 A 
ATOM     17  C   UNL     1      12.659  21.200  12.313  1.00  0.00    +0.000 A 
ENDBRANCH   7   9
ENDBRANCH   6   7
ENDBRANCH   5   6
ENDBRANCH   4   5
ENDBRANCH   1   4
BRANCH   1  18
ATOM     18  C   UNL     1      15.211  30.454  12.091  1.00  0.00    +0.256 C 
ATOM     19  O   UNL     1      15.197  30.427  13.329  1.00  0.00    -0.271 OA
BRANCH  18  20
ATOM     20  C   UNL     1      15.179  31.829  11.340  1.00  0.00    +0.237 C 
BRANCH  20  21
ATOM     21  O   UNL     1      15.527  31.749   9.952  1.00  0.00    -0.367 OA
ATOM     22  C   UNL     1      16.743  32.416   9.648  1.00  0.00    +0.196 C 
ENDBRANCH  20  21
BRANCH  20  23
ATOM     23  C   UNL     1      13.785  32.441  11.366  1.00  0.00    -0.010 A 
ATOM     24  C   UNL     1      12.894  32.244  10.297  1.00  0.00    +0.010 A 
ATOM     25  C   UNL     1      13.355  33.188  12.478  1.00  0.00    +0.010 A 
ATOM     26  C   UNL     1      11.620  32.815  10.324  1.00  0.00    +0.039 A 
ATOM     27  C   UNL     1      12.076  33.747  12.509  1.00  0.00    +0.039 A 
ATOM     28  C   UNL     1      11.226  33.563  11.427  1.00  0.00    +0.123 A 
ATOM     29  F   UNL     1      10.005  34.116  11.447  1.00  0.00    -0.207 F 
ENDBRANCH  20  23
ENDBRANCH  18  20
ENDBRANCH   1  18
TORSDOF 10
ENDMDL
MODEL 5
REMARK VINA RESULT:    -6.060     18.451     20.145
REMARK INTER + INTRA:         -10.905
REMARK INTER:                 -11.204
REMARK INTRA:                   0.299
REMARK UNBOUND:                -1.303
REMARK SMILES CCN(CCCC(C)C1=Nc2ccccc2C1)C(=O)C(OC)c1ccc(F)cc1
REMARK SMILES IDX 3 1 2 2 1 3 4 4 5 5 6 6 7 7 8 8 9 9 10 10 17 11 11 12 16 13
REMARK SMILES IDX 12 14 15 15 13 16 14 17 18 18 19 19 20 20 21 21 22 22 23 23
REMARK SMILES IDX 24 24 29 25 25 26 28 27 26 28 27 29
REMARK H PARENT
ROOT
ATOM      1  N   UNL     1       3.547  27.052  -5.911  1.00  0.00    -0.340 N 
ENDROOT
BRANCH   1   2
ATOM      2  C   UNL     1       3.862  28.169  -6.812  1.00  0.00    +0.116 C 
ATOM      3  C   UNL     1       5.022  29.033  -6.343  1.00  0.00    +0.027 C 
ENDBRANCH   1   2
BRANCH   1   4
ATOM      4  C   UNL     1       4.643  26.526  -5.083  1.00  0.00    +0.119 C 
BRANCH   4   5
ATOM      5  C   UNL     1       5.638  25.617  -5.814  1.00  0.00    +0.022 C 
BRANCH   5   6
ATOM      6  C   UNL     1       5.496  24.131  -5.464  1.00  0.00    +0.011 C 
BRANCH   6   7
ATOM      7  C   UNL     1       6.793  23.458  -4.979  1.00  0.00    +0.031 C 
ATOM      8  C   UNL     1       8.054  24.004  -5.638  1.00  0.00    +0.014 C 
BRANCH   7   9
ATOM      9  C   UNL     1       6.869  23.524  -3.471  1.00  0.00    +0.026 C 
ATOM     10  N   UNL     1       6.169  24.339  -2.728  1.00  0.00    -0.257 NA
ATOM     11  C   UNL     1       7.762  22.554  -2.696  1.00  0.00    +0.089 C 
ATOM     12  C   UNL     1       6.499  24.021  -1.400  1.00  0.00    +0.066 A 
ATOM     13  C   UNL     1       7.421  22.974  -1.311  1.00  0.00    -0.017 A 
ATOM     14  C   UNL     1       5.993  24.615  -0.260  1.00  0.00    +0.028 A 
ATOM     15  C   UNL     1       7.861  22.489  -0.094  1.00  0.00    +0.006 A 
ATOM     16  C   UNL     1       6.428  24.141   0.981  1.00  0.00    +0.002 A 
ATOM     17  C   UNL     1       7.354  23.086   1.063  1.00  0.00    +0.000 A 
ENDBRANCH   7   9
ENDBRANCH   6   7
ENDBRANCH   5   6
ENDBRANCH   4   5
ENDBRANCH   1   4
BRANCH   1  18
ATOM     18  C   UNL     1       2.279  26.472  -5.761  1.00  0.00    +0.256 C 
ATOM     19  O   UNL     1       1.327  26.854  -6.454  1.00  0.00    -0.271 OA
BRANCH  18  20
ATOM     20  C   UNL     1       2.061  25.357  -4.681  1.00  0.00    +0.237 C 
BRANCH  20  21
ATOM     21  O   UNL     1       2.968  25.428  -3.573  1.00  0.00    -0.367 OA
ATOM     22  C   UNL     1       3.007  24.228  -2.814  1.00  0.00    +0.196 C 
ENDBRANCH  20  21
BRANCH  20  23
ATOM     23  C   UNL     1       0.672  25.447  -4.066  1.00  0.00    -0.010 A 
ATOM     24  C   UNL     1       0.193  26.664  -3.550  1.00  0.00    +0.010 A 
ATOM     25  C   UNL     1      -0.168  24.319  -4.032  1.00  0.00    +0.010 A 
ATOM     26  C   UNL     1      -1.080  26.737  -2.980  1.00  0.00    +0.039 A 
ATOM     27  C   UNL     1      -1.444  24.398  -3.473  1.00  0.00    +0.039 A 
ATOM     28  C   UNL     1      -1.883  25.604  -2.944  1.00  0.00    +0.123 A 
ATOM     29  F   UNL     1      -3.101  25.676  -2.389  1.00  0.00    -0.207 F 
ENDBRANCH  20  23
ENDBRANCH  18  20
ENDBRANCH   1  18
TORSDOF 10
ENDMDL
MODEL 6
REMARK VINA RESULT:    -6.017     18.712     20.509
REMARK INTER + INTRA:         -10.837
REMARK INTER:                 -11.236
REMARK INTRA:                   0.399
REMARK UNBOUND:                -1.303
REMARK SMILES CCN(CCCC(C)C1=Nc2ccccc2C1)C(=O)C(OC)c1ccc(F)cc1
REMARK SMILES IDX 3 1 2 2 1 3 4 4 5 5 6 6 7 7 8 8 9 9 10 10 17 11 11 12 16 13
REMARK SMILES IDX 12 14 15 15 13 16 14 17 18 18 19 19 20 20 21 21 22 22 23 23
REMARK SMILES IDX 24 24 29 25 25 26 28 27 26 28 27 29
REMARK H PARENT
ROOT
ATOM      1  N   UNL     1       3.817  26.456  -5.104  1.00  0.00    -0.340 N 
ENDROOT
BRANCH   1   2
ATOM      2  C   UNL     1       4.089  26.725  -6.522  1.00  0.00    +0.116 C 
ATOM      3  C   UNL     1       4.484  28.165  -6.812  1.00  0.00    +0.027 C 
ENDBRANCH   1   2
BRANCH   1   4
ATOM      4  C   UNL     1       4.880  26.780  -4.140  1.00  0.00    +0.119 C 
BRANCH   4   5
ATOM      5  C   UNL     1       6.208  26.047  -4.359  1.00  0.00    +0.022 C 
BRANCH   5   6
ATOM      6  C   UNL     1       6.264  25.236  -5.659  1.00  0.00    +0.011 C 
BRANCH   6   7
ATOM      7  C   UNL     1       6.761  23.788  -5.493  1.00  0.00    +0.031 C 
ATOM      8  C   UNL     1       8.132  23.533  -6.107  1.00  0.00    +0.014 C 
BRANCH   7   9
ATOM      9  C   UNL     1       6.712  23.395  -4.034  1.00  0.00    +0.026 C 
ATOM     10  N   UNL     1       7.763  23.209  -3.281  1.00  0.00    -0.257 NA
ATOM     11  C   UNL     1       5.371  23.251  -3.314  1.00  0.00    +0.089 C 
ATOM     12  C   UNL     1       7.266  22.926  -1.998  1.00  0.00    +0.066 A 
ATOM     13  C   UNL     1       5.870  22.945  -1.946  1.00  0.00    -0.017 A 
ATOM     14  C   UNL     1       8.011  22.671  -0.864  1.00  0.00    +0.028 A 
ATOM     15  C   UNL     1       5.179  22.716  -0.771  1.00  0.00    +0.006 A 
ATOM     16  C   UNL     1       7.332  22.432   0.335  1.00  0.00    +0.002 A 
ATOM     17  C   UNL     1       5.926  22.456   0.380  1.00  0.00    +0.000 A 
ENDBRANCH   7   9
ENDBRANCH   6   7
ENDBRANCH   5   6
ENDBRANCH   4   5
ENDBRANCH   1   4
BRANCH   1  18
ATOM     18  C   UNL     1       2.614  25.941  -4.599  1.00  0.00    +0.256 C 
ATOM     19  O   UNL     1       2.610  24.909  -3.914  1.00  0.00    -0.271 OA
BRANCH  18  20
ATOM     20  C   UNL     1       1.262  26.659  -4.936  1.00  0.00    +0.237 C 
BRANCH  20  21
ATOM     21  O   UNL     1       0.864  26.546  -6.308  1.00  0.00    -0.367 OA
ATOM     22  C   UNL     1       0.224  27.716  -6.795  1.00  0.00    +0.196 C 
ENDBRANCH  20  21
BRANCH  20  23
ATOM     23  C   UNL     1       0.108  26.069  -4.136  1.00  0.00    -0.010 A 
ATOM     24  C   UNL     1      -0.609  26.859  -3.222  1.00  0.00    +0.010 A 
ATOM     25  C   UNL     1      -0.279  24.730  -4.325  1.00  0.00    +0.010 A 
ATOM     26  C   UNL     1      -1.661  26.310  -2.486  1.00  0.00    +0.039 A 
ATOM     27  C   UNL     1      -1.339  24.187  -3.598  1.00  0.00    +0.039 A 
ATOM     28  C   UNL     1      -2.013  24.979  -2.679  1.00  0.00    +0.123 A 
ATOM     29  F   UNL     1      -3.018  24.453  -1.966  1.00  0.00    -0.207 F 
ENDBRANCH  20  23
ENDBRANCH  18  20
ENDBRANCH   1  18
TORSDOF 10
ENDMDL
MODEL 7
REMARK VINA RESULT:    -6.000      3.254      8.772
REMARK INTER + INTRA:         -10.810
REMARK INTER:                  -9.504
REMARK INTRA:                  -1.307
REMARK UNBOUND:                -1.303
REMARK SMILES CCN(CCCC(C)C1=Nc2ccccc2C1)C(=O)C(OC)c1ccc(F)cc1
REMARK SMILES IDX 3 1 2 2 1 3 4 4 5 5 6 6 7 7 8 8 9 9 10 10 17 11 11 12 16 13
REMARK SMILES IDX 12 14 15 15 13 16 14 17 18 18 19 19 20 20 21 21 22 22 23 23
REMARK SMILES IDX 24 24 29 25 25 26 28 27 26 28 27 29
REMARK H PARENT
ROOT
ATOM      1  N   UNL     1      15.761  29.827  10.770  1.00  0.00    -0.340 N 
ENDROOT
BRANCH   1   2
ATOM      2  C   UNL     1      16.588  30.831  10.089  1.00  0.00    +0.116 C 
ATOM      3  C   UNL     1      15.960  32.215  10.034  1.00  0.00    +0.027 C 
ENDBRANCH   1   2
BRANCH   1   4
ATOM      4  C   UNL     1      15.539  28.551  10.073  1.00  0.00    +0.119 C 
BRANCH   4   5
ATOM      5  C   UNL     1      15.339  27.334  10.984  1.00  0.00    +0.022 C 
BRANCH   5   6
ATOM      6  C   UNL     1      16.631  26.564  11.285  1.00  0.00    +0.011 C 
BRANCH   6   7
ATOM      7  C   UNL     1      16.703  25.160  10.658  1.00  0.00    +0.031 C 
ATOM      8  C   UNL     1      18.094  24.538  10.698  1.00  0.00    +0.014 C 
BRANCH   7   9
ATOM      9  C   UNL     1      15.664  24.264  11.292  1.00  0.00    +0.026 C 
ATOM     10  N   UNL     1      14.812  23.530  10.626  1.00  0.00    -0.257 NA
ATOM     11  C   UNL     1      15.593  24.112  12.812  1.00  0.00    +0.089 C 
ATOM     12  C   UNL     1      14.087  22.816  11.595  1.00  0.00    +0.066 A 
ATOM     13  C   UNL     1      14.504  23.104  12.898  1.00  0.00    -0.017 A 
ATOM     14  C   UNL     1      13.081  21.900  11.361  1.00  0.00    +0.028 A 
ATOM     15  C   UNL     1      13.937  22.489  13.998  1.00  0.00    +0.006 A 
ATOM     16  C   UNL     1      12.491  21.270  12.461  1.00  0.00    +0.002 A 
ATOM     17  C   UNL     1      12.917  21.563  13.769  1.00  0.00    +0.000 A 
ENDBRANCH   7   9
ENDBRANCH   6   7
ENDBRANCH   5   6
ENDBRANCH   4   5
ENDBRANCH   1   4
BRANCH   1  18
ATOM     18  C   UNL     1      15.192  29.982  12.043  1.00  0.00    +0.256 C 
ATOM     19  O   UNL     1      15.908  30.210  13.028  1.00  0.00    -0.271 OA
BRANCH  18  20
ATOM     20  C   UNL     1      13.643  29.828  12.223  1.00  0.00    +0.237 C 
BRANCH  20  21
ATOM     21  O   UNL     1      13.244  29.399  13.532  1.00  0.00    -0.367 OA
ATOM     22  C   UNL     1      12.250  28.386  13.500  1.00  0.00    +0.196 C 
ENDBRANCH  20  21
BRANCH  20  23
ATOM     23  C   UNL     1      12.926  31.153  12.003  1.00  0.00    -0.010 A 
ATOM     24  C   UNL     1      12.371  31.470  10.752  1.00  0.00    +0.010 A 
ATOM     25  C   UNL     1      12.781  32.070  13.061  1.00  0.00    +0.010 A 
ATOM     26  C   UNL     1      11.722  32.691  10.555  1.00  0.00    +0.039 A 
ATOM     27  C   UNL     1      12.121  33.283  12.865  1.00  0.00    +0.039 A 
ATOM     28  C   UNL     1      11.607  33.586  11.612  1.00  0.00    +0.123 A 
ATOM     29  F   UNL     1      10.990  34.760  11.418  1.00  0.00    -0.207 F 
ENDBRANCH  20  23
ENDBRANCH  18  20
ENDBRANCH   1  18
TORSDOF 10
ENDMDL
MODEL 8
REMARK VINA RESULT:    -5.789     19.048     20.228
REMARK INTER + INTRA:         -10.476
REMARK INTER:                  -9.732
REMARK INTRA:                  -0.744
REMARK UNBOUND:                -1.303
REMARK SMILES CCN(CCCC(C)C1=Nc2ccccc2C1)C(=O)C(OC)c1ccc(F)cc1
REMARK SMILES IDX 3 1 2 2 1 3 4 4 5 5 6 6 7 7 8 8 9 9 10 10 17 11 11 12 16 13
REMARK SMILES IDX 12 14 15 15 13 16 14 17 18 18 19 19 20 20 21 21 22 22 23 23
REMARK SMILES IDX 24 24 29 25 25 26 28 27 26 28 27 29
REMARK H PARENT
ROOT
ATOM      1  N   UNL     1       5.664  24.509  -3.122  1.00  0.00    -0.340 N 
ENDROOT
BRANCH   1   2
ATOM      2  C   UNL     1       6.363  24.175  -1.874  1.00  0.00    +0.116 C 
ATOM      3  C   UNL     1       5.557  24.467  -0.618  1.00  0.00    +0.027 C 
ENDBRANCH   1   2
BRANCH   1   4
ATOM      4  C   UNL     1       4.627  25.550  -3.057  1.00  0.00    +0.119 C 
BRANCH   4   5
ATOM      5  C   UNL     1       3.226  25.107  -3.490  1.00  0.00    +0.022 C 
BRANCH   5   6
ATOM      6  C   UNL     1       2.864  25.502  -4.927  1.00  0.00    +0.011 C 
BRANCH   6   7
ATOM      7  C   UNL     1       1.695  26.497  -5.045  1.00  0.00    +0.031 C 
ATOM      8  C   UNL     1       1.443  26.986  -6.466  1.00  0.00    +0.014 C 
BRANCH   7   9
ATOM      9  C   UNL     1       0.453  25.902  -4.422  1.00  0.00    +0.026 C 
ATOM     10  N   UNL     1       0.022  24.689  -4.642  1.00  0.00    -0.257 NA
ATOM     11  C   UNL     1      -0.366  26.703  -3.409  1.00  0.00    +0.089 C 
ATOM     12  C   UNL     1      -1.108  24.533  -3.822  1.00  0.00    +0.066 A 
ATOM     13  C   UNL     1      -1.384  25.674  -3.065  1.00  0.00    -0.017 A 
ATOM     14  C   UNL     1      -1.893  23.403  -3.707  1.00  0.00    +0.028 A 
ATOM     15  C   UNL     1      -2.440  25.722  -2.173  1.00  0.00    +0.006 A 
ATOM     16  C   UNL     1      -2.969  23.432  -2.815  1.00  0.00    +0.002 A 
ATOM     17  C   UNL     1      -3.238  24.583  -2.053  1.00  0.00    +0.000 A 
ENDBRANCH   7   9
ENDBRANCH   6   7
ENDBRANCH   5   6
ENDBRANCH   4   5
ENDBRANCH   1   4
BRANCH   1  18
ATOM     18  C   UNL     1       5.930  23.931  -4.373  1.00  0.00    +0.256 C 
ATOM     19  O   UNL     1       5.586  22.766  -4.612  1.00  0.00    -0.271 OA
BRANCH  18  20
ATOM     20  C   UNL     1       6.700  24.757  -5.459  1.00  0.00    +0.237 C 
BRANCH  20  21
ATOM     21  O   UNL     1       6.849  26.147  -5.144  1.00  0.00    -0.367 OA
ATOM     22  C   UNL     1       6.123  26.993  -6.024  1.00  0.00    +0.196 C 
ENDBRANCH  20  21
BRANCH  20  23
ATOM     23  C   UNL     1       8.119  24.237  -5.646  1.00  0.00    -0.010 A 
ATOM     24  C   UNL     1       8.954  24.772  -6.642  1.00  0.00    +0.010 A 
ATOM     25  C   UNL     1       8.627  23.232  -4.803  1.00  0.00    +0.010 A 
ATOM     26  C   UNL     1      10.252  24.285  -6.812  1.00  0.00    +0.039 A 
ATOM     27  C   UNL     1       9.928  22.756  -4.967  1.00  0.00    +0.039 A 
ATOM     28  C   UNL     1      10.724  23.280  -5.977  1.00  0.00    +0.123 A 
ATOM     29  F   UNL     1      11.967  22.809  -6.148  1.00  0.00    -0.207 F 
ENDBRANCH  20  23
ENDBRANCH  18  20
ENDBRANCH   1  18
TORSDOF 10
ENDMDL
MODEL 9
REMARK VINA RESULT:    -5.701      3.406      9.501
REMARK INTER + INTRA:         -10.336
REMARK INTER:                  -8.826
REMARK INTRA:                  -1.511
REMARK UNBOUND:                -1.303
REMARK SMILES CCN(CCCC(C)C1=Nc2ccccc2C1)C(=O)C(OC)c1ccc(F)cc1
REMARK SMILES IDX 3 1 2 2 1 3 4 4 5 5 6 6 7 7 8 8 9 9 10 10 17 11 11 12 16 13
REMARK SMILES IDX 12 14 15 15 13 16 14 17 18 18 19 19 20 20 21 21 22 22 23 23
REMARK SMILES IDX 24 24 29 25 25 26 28 27 26 28 27 29
REMARK H PARENT
ROOT
ATOM      1  N   UNL     1      15.873  28.944  11.286  1.00  0.00    -0.340 N 
ENDROOT
BRANCH   1   2
ATOM      2  C   UNL     1      14.686  28.406  10.608  1.00  0.00    +0.116 C 
ATOM      3  C   UNL     1      13.431  28.406  11.467  1.00  0.00    +0.027 C 
ENDBRANCH   1   2
BRANCH   1   4
ATOM      4  C   UNL     1      17.116  28.164  11.190  1.00  0.00    +0.119 C 
BRANCH   4   5
ATOM      5  C   UNL     1      16.944  26.716  10.717  1.00  0.00    +0.022 C 
BRANCH   5   6
ATOM      6  C   UNL     1      16.834  25.698  11.858  1.00  0.00    +0.011 C 
BRANCH   6   7
ATOM      7  C   UNL     1      15.537  24.869  11.857  1.00  0.00    +0.031 C 
ATOM      8  C   UNL     1      15.001  24.566  10.462  1.00  0.00    +0.014 C 
BRANCH   7   9
ATOM      9  C   UNL     1      15.733  23.611  12.673  1.00  0.00    +0.026 C 
ATOM     10  N   UNL     1      14.785  23.001  13.332  1.00  0.00    -0.257 NA
ATOM     11  C   UNL     1      17.097  22.922  12.720  1.00  0.00    +0.089 C 
ATOM     12  C   UNL     1      15.384  21.856  13.886  1.00  0.00    +0.066 A 
ATOM     13  C   UNL     1      16.737  21.746  13.556  1.00  0.00    -0.017 A 
ATOM     14  C   UNL     1      14.764  20.895  14.659  1.00  0.00    +0.028 A 
ATOM     15  C   UNL     1      17.508  20.679  13.979  1.00  0.00    +0.006 A 
ATOM     16  C   UNL     1      15.527  19.809  15.101  1.00  0.00    +0.002 A 
ATOM     17  C   UNL     1      16.888  19.702  14.762  1.00  0.00    +0.000 A 
ENDBRANCH   7   9
ENDBRANCH   6   7
ENDBRANCH   5   6
ENDBRANCH   4   5
ENDBRANCH   1   4
BRANCH   1  18
ATOM     18  C   UNL     1      15.918  30.156  11.991  1.00  0.00    +0.256 C 
ATOM     19  O   UNL     1      15.999  30.162  13.226  1.00  0.00    -0.271 OA
BRANCH  18  20
ATOM     20  C   UNL     1      15.827  31.511  11.208  1.00  0.00    +0.237 C 
BRANCH  20  21
ATOM     21  O   UNL     1      16.207  31.419   9.829  1.00  0.00    -0.367 OA
ATOM     22  C   UNL     1      17.393  32.142   9.534  1.00  0.00    +0.196 C 
ENDBRANCH  20  21
BRANCH  20  23
ATOM     23  C   UNL     1      14.402  32.047  11.194  1.00  0.00    -0.010 A 
ATOM     24  C   UNL     1      13.880  32.730  12.306  1.00  0.00    +0.010 A 
ATOM     25  C   UNL     1      13.594  31.894  10.052  1.00  0.00    +0.010 A 
ATOM     26  C   UNL     1      12.569  33.211  12.288  1.00  0.00    +0.039 A 
ATOM     27  C   UNL     1      12.289  32.387  10.032  1.00  0.00    +0.039 A 
ATOM     28  C   UNL     1      11.786  33.032  11.154  1.00  0.00    +0.123 A 
ATOM     29  F   UNL     1      10.527  33.489  11.143  1.00  0.00    -0.207 F 
ENDBRANCH  20  23
ENDBRANCH  18  20
ENDBRANCH   1  18
TORSDOF 10
ENDMDL
