MODEL 1
REMARK VINA RESULT:    -9.870      0.000      0.000
REMARK INTER + INTRA:         -15.274
REMARK INTER:                 -13.908
REMARK INTRA:                  -1.365
REMARK UNBOUND:                -1.365
REMARK SMILES CC(C)=CCCC(C)=CCOc1ccc2c(=O)cc(-c3ccco3)oc2c1
REMARK SMILES IDX 7 1 8 2 9 3 6 4 5 5 4 6 2 7 1 8 3 9 10 10 11 11 12 12 27 13
REMARK SMILES IDX 13 14 26 15 14 16 15 17 25 18 16 19 19 20 17 21 18 22 20 23
REMARK SMILES IDX 21 24 24 25 22 26 23 27
REMARK H PARENT
ROOT
ATOM      1  C   UNL     1      -4.731  -7.238  32.578  1.00  0.00    -0.074 C 
ATOM      2  C   UNL     1      -3.436  -6.986  33.302  1.00  0.00    +0.039 C 
ATOM      3  C   UNL     1      -4.997  -8.338  31.844  1.00  0.00    +0.013 C 
ENDROOT
BRANCH   1   4
ATOM      4  C   UNL     1      -5.767  -6.135  32.705  1.00  0.00    +0.034 C 
BRANCH   4   5
ATOM      5  C   UNL     1      -7.088  -6.632  33.303  1.00  0.00    +0.032 C 
BRANCH   5   6
ATOM      6  C   UNL     1      -8.261  -6.238  32.447  1.00  0.00    -0.028 C 
ATOM      7  C   UNL     1      -8.954  -7.018  31.594  1.00  0.00    -0.080 C 
ATOM      8  C   UNL     1      -8.704  -8.484  31.367  1.00  0.00    +0.039 C 
ATOM      9  C   UNL     1     -10.088  -6.450  30.781  1.00  0.00    +0.039 C 
ENDBRANCH   5   6
ENDBRANCH   4   5
ENDBRANCH   1   4
BRANCH   3  10
ATOM     10  C   UNL     1      -4.108  -9.510  31.516  1.00  0.00    +0.257 C 
BRANCH  10  11
ATOM     11  O   UNL     1      -4.378 -10.678  32.289  1.00  0.00    -0.489 OA
BRANCH  11  12
ATOM     12  C   UNL     1      -5.256 -11.605  31.800  1.00  0.00    +0.123 A 
ATOM     13  C   UNL     1      -6.575 -11.438  32.238  1.00  0.00    +0.094 A 
ATOM     14  C   UNL     1      -4.944 -12.670  30.952  1.00  0.00    +0.047 A 
ATOM     15  C   UNL     1      -7.574 -12.318  31.825  1.00  0.00    +0.142 A 
ATOM     16  C   UNL     1      -5.945 -13.555  30.535  1.00  0.00    +0.020 A 
ATOM     17  C   UNL     1      -7.258 -13.372  30.974  1.00  0.00    +0.065 A 
ATOM     18  O   UNL     1      -8.845 -12.093  32.291  1.00  0.00    -0.452 OA
ATOM     19  C   UNL     1      -8.330 -14.285  30.553  1.00  0.00    +0.193 C 
ATOM     20  C   UNL     1      -9.850 -12.958  31.892  1.00  0.00    +0.173 C 
ATOM     21  O   UNL     1      -8.125 -15.231  29.804  1.00  0.00    -0.289 OA
ATOM     22  C   UNL     1      -9.675 -14.007  31.078  1.00  0.00    +0.103 C 
BRANCH  20  23
ATOM     23  C   UNL     1     -11.142 -12.659  32.418  1.00  0.00    +0.169 A 
ATOM     24  C   UNL     1     -11.497 -11.830  33.479  1.00  0.00    +0.054 A 
ATOM     25  O   UNL     1     -12.316 -13.190  31.915  1.00  0.00    -0.461 OA
ATOM     26  C   UNL     1     -12.905 -11.860  33.616  1.00  0.00    +0.043 A 
ATOM     27  C   UNL     1     -13.355 -12.707  32.636  1.00  0.00    +0.196 A 
ENDBRANCH  20  23
ENDBRANCH  11  12
ENDBRANCH  10  11
ENDBRANCH   3  10
TORSDOF 7
ENDMDL
MODEL 2
REMARK VINA RESULT:    -9.691      1.453      2.142
REMARK INTER + INTRA:         -15.022
REMARK INTER:                 -13.880
REMARK INTRA:                  -1.142
REMARK UNBOUND:                -1.365
REMARK SMILES CC(C)=CCCC(C)=CCOc1ccc2c(=O)cc(-c3ccco3)oc2c1
REMARK SMILES IDX 7 1 8 2 9 3 6 4 5 5 4 6 2 7 1 8 3 9 10 10 11 11 12 12 27 13
REMARK SMILES IDX 13 14 26 15 14 16 15 17 25 18 16 19 19 20 17 21 18 22 20 23
REMARK SMILES IDX 21 24 24 25 22 26 23 27
REMARK H PARENT
ROOT
ATOM      1  C   UNL     1      -7.318  -6.648  32.008  1.00  0.00    -0.074 C 
ATOM      2  C   UNL     1      -5.982  -6.113  31.564  1.00  0.00    +0.039 C 
ATOM      3  C   UNL     1      -7.487  -7.759  32.756  1.00  0.00    +0.013 C 
ENDROOT
BRANCH   1   4
ATOM      4  C   UNL     1      -8.521  -5.851  31.539  1.00  0.00    +0.034 C 
BRANCH   4   5
ATOM      5  C   UNL     1      -9.535  -6.708  30.773  1.00  0.00    +0.032 C 
BRANCH   5   6
ATOM      6  C   UNL     1     -10.878  -6.708  31.453  1.00  0.00    -0.028 C 
ATOM      7  C   UNL     1     -11.510  -7.754  32.023  1.00  0.00    -0.080 C 
ATOM      8  C   UNL     1     -10.952  -9.147  32.128  1.00  0.00    +0.039 C 
ATOM      9  C   UNL     1     -12.877  -7.586  32.633  1.00  0.00    +0.039 C 
ENDBRANCH   5   6
ENDBRANCH   4   5
ENDBRANCH   1   4
BRANCH   3  10
ATOM     10  C   UNL     1      -6.461  -8.739  33.264  1.00  0.00    +0.257 C 
BRANCH  10  11
ATOM     11  O   UNL     1      -5.690  -9.357  32.236  1.00  0.00    -0.489 OA
BRANCH  11  12
ATOM     12  C   UNL     1      -6.092 -10.569  31.746  1.00  0.00    +0.123 A 
ATOM     13  C   UNL     1      -7.416 -10.904  32.052  1.00  0.00    +0.094 A 
ATOM     14  C   UNL     1      -5.309 -11.465  31.015  1.00  0.00    +0.047 A 
ATOM     15  C   UNL     1      -7.956 -12.116  31.623  1.00  0.00    +0.142 A 
ATOM     16  C   UNL     1      -5.849 -12.682  30.583  1.00  0.00    +0.020 A 
ATOM     17  C   UNL     1      -7.173 -13.000  30.889  1.00  0.00    +0.065 A 
ATOM     18  O   UNL     1      -9.262 -12.377  31.956  1.00  0.00    -0.452 OA
ATOM     19  C   UNL     1      -7.767 -14.270  30.448  1.00  0.00    +0.193 C 
ATOM     20  C   UNL     1      -9.815 -13.577  31.540  1.00  0.00    +0.173 C 
ATOM     21  O   UNL     1      -7.137 -15.094  29.797  1.00  0.00    -0.289 OA
ATOM     22  C   UNL     1      -9.167 -14.509  30.829  1.00  0.00    +0.103 C 
BRANCH  20  23
ATOM     23  C   UNL     1     -11.174 -13.777  31.925  1.00  0.00    +0.169 A 
ATOM     24  C   UNL     1     -11.846 -14.960  32.222  1.00  0.00    +0.054 A 
ATOM     25  O   UNL     1     -12.088 -12.750  32.070  1.00  0.00    -0.461 OA
ATOM     26  C   UNL     1     -13.184 -14.640  32.551  1.00  0.00    +0.043 A 
ATOM     27  C   UNL     1     -13.279 -13.277  32.442  1.00  0.00    +0.196 A 
ENDBRANCH  20  23
ENDBRANCH  11  12
ENDBRANCH  10  11
ENDBRANCH   3  10
TORSDOF 7
ENDMDL
MODEL 3
REMARK VINA RESULT:    -9.640      1.950      5.403
REMARK INTER + INTRA:         -14.950
REMARK INTER:                 -12.875
REMARK INTRA:                  -2.076
REMARK UNBOUND:                -1.365
REMARK SMILES CC(C)=CCCC(C)=CCOc1ccc2c(=O)cc(-c3ccco3)oc2c1
REMARK SMILES IDX 7 1 8 2 9 3 6 4 5 5 4 6 2 7 1 8 3 9 10 10 11 11 12 12 27 13
REMARK SMILES IDX 13 14 26 15 14 16 15 17 25 18 16 19 19 20 17 21 18 22 20 23
REMARK SMILES IDX 21 24 24 25 22 26 23 27
REMARK H PARENT
ROOT
ATOM      1  C   UNL     1     -11.146  -8.331  31.662  1.00  0.00    -0.074 C 
ATOM      2  C   UNL     1     -10.382  -8.936  30.514  1.00  0.00    +0.039 C 
ATOM      3  C   UNL     1     -11.721  -9.038  32.656  1.00  0.00    +0.013 C 
ENDROOT
BRANCH   1   4
ATOM      4  C   UNL     1     -11.258  -6.817  31.636  1.00  0.00    +0.034 C 
BRANCH   4   5
ATOM      5  C   UNL     1      -9.968  -6.138  31.161  1.00  0.00    +0.032 C 
BRANCH   5   6
ATOM      6  C   UNL     1      -8.958  -6.041  32.272  1.00  0.00    -0.028 C 
ATOM      7  C   UNL     1      -7.737  -6.609  32.323  1.00  0.00    -0.080 C 
ATOM      8  C   UNL     1      -7.121  -7.434  31.226  1.00  0.00    +0.039 C 
ATOM      9  C   UNL     1      -6.860  -6.438  33.536  1.00  0.00    +0.039 C 
ENDBRANCH   5   6
ENDBRANCH   4   5
ENDBRANCH   1   4
BRANCH   3  10
ATOM     10  C   UNL     1     -11.807 -10.531  32.846  1.00  0.00    +0.257 C 
BRANCH  10  11
ATOM     11  O   UNL     1     -10.777 -11.071  33.671  1.00  0.00    -0.489 OA
BRANCH  11  12
ATOM     12  C   UNL     1      -9.519 -11.206  33.155  1.00  0.00    +0.123 A 
ATOM     13  C   UNL     1      -9.407 -12.178  32.154  1.00  0.00    +0.094 A 
ATOM     14  C   UNL     1      -8.384 -10.492  33.548  1.00  0.00    +0.047 A 
ATOM     15  C   UNL     1      -8.178 -12.427  31.544  1.00  0.00    +0.142 A 
ATOM     16  C   UNL     1      -7.150 -10.740  32.937  1.00  0.00    +0.020 A 
ATOM     17  C   UNL     1      -7.054 -11.708  31.935  1.00  0.00    +0.065 A 
ATOM     18  O   UNL     1      -8.143 -13.391  30.568  1.00  0.00    -0.452 OA
ATOM     19  C   UNL     1      -5.770 -11.989  31.276  1.00  0.00    +0.193 C 
ATOM     20  C   UNL     1      -6.930 -13.654  29.953  1.00  0.00    +0.173 C 
ATOM     21  O   UNL     1      -4.742 -11.393  31.568  1.00  0.00    -0.289 OA
ATOM     22  C   UNL     1      -5.779 -13.032  30.238  1.00  0.00    +0.103 C 
BRANCH  20  23
ATOM     23  C   UNL     1      -6.973 -14.669  28.951  1.00  0.00    +0.169 A 
ATOM     24  C   UNL     1      -8.060 -15.401  28.477  1.00  0.00    +0.054 A 
ATOM     25  O   UNL     1      -5.861 -15.108  28.256  1.00  0.00    -0.461 OA
ATOM     26  C   UNL     1      -7.594 -16.291  27.481  1.00  0.00    +0.043 A 
ATOM     27  C   UNL     1      -6.245 -16.071  27.386  1.00  0.00    +0.196 A 
ENDBRANCH  20  23
ENDBRANCH  11  12
ENDBRANCH  10  11
ENDBRANCH   3  10
TORSDOF 7
ENDMDL
MODEL 4
REMARK VINA RESULT:    -9.502      1.895      5.477
REMARK INTER + INTRA:         -14.756
REMARK INTER:                 -13.341
REMARK INTRA:                  -1.416
REMARK UNBOUND:                -1.365
REMARK SMILES CC(C)=CCCC(C)=CCOc1ccc2c(=O)cc(-c3ccco3)oc2c1
REMARK SMILES IDX 7 1 8 2 9 3 6 4 5 5 4 6 2 7 1 8 3 9 10 10 11 11 12 12 27 13
REMARK SMILES IDX 13 14 26 15 14 16 15 17 25 18 16 19 19 20 17 21 18 22 20 23
REMARK SMILES IDX 21 24 24 25 22 26 23 27
REMARK H PARENT
ROOT
ATOM      1  C   UNL     1     -10.809  -7.425  31.200  1.00  0.00    -0.074 C 
ATOM      2  C   UNL     1     -10.456  -8.623  30.358  1.00  0.00    +0.039 C 
ATOM      3  C   UNL     1     -11.711  -7.433  32.202  1.00  0.00    +0.013 C 
ENDROOT
BRANCH   1   4
ATOM      4  C   UNL     1     -10.078  -6.145  30.839  1.00  0.00    +0.034 C 
BRANCH   4   5
ATOM      5  C   UNL     1      -8.903  -5.851  31.778  1.00  0.00    +0.032 C 
BRANCH   5   6
ATOM      6  C   UNL     1      -7.596  -6.292  31.178  1.00  0.00    -0.028 C 
ATOM      7  C   UNL     1      -6.891  -7.404  31.470  1.00  0.00    -0.080 C 
ATOM      8  C   UNL     1      -7.317  -8.464  32.449  1.00  0.00    +0.039 C 
ATOM      9  C   UNL     1      -5.573  -7.678  30.795  1.00  0.00    +0.039 C 
ENDBRANCH   5   6
ENDBRANCH   4   5
ENDBRANCH   1   4
BRANCH   3  10
ATOM     10  C   UNL     1     -12.602  -8.551  32.682  1.00  0.00    +0.257 C 
BRANCH  10  11
ATOM     11  O   UNL     1     -11.959  -9.468  33.563  1.00  0.00    -0.489 OA
BRANCH  11  12
ATOM     12  C   UNL     1     -11.803 -10.767  33.166  1.00  0.00    +0.123 A 
ATOM     13  C   UNL     1     -10.579 -11.038  32.545  1.00  0.00    +0.094 A 
ATOM     14  C   UNL     1     -12.741 -11.792  33.310  1.00  0.00    +0.047 A 
ATOM     15  C   UNL     1     -10.289 -12.320  32.081  1.00  0.00    +0.142 A 
ATOM     16  C   UNL     1     -12.452 -13.081  32.847  1.00  0.00    +0.020 A 
ATOM     17  C   UNL     1     -11.224 -13.339  32.235  1.00  0.00    +0.065 A 
ATOM     18  O   UNL     1      -9.069 -12.515  31.485  1.00  0.00    -0.452 OA
ATOM     19  C   UNL     1     -10.894 -14.682  31.739  1.00  0.00    +0.193 C 
ATOM     20  C   UNL     1      -8.764 -13.782  31.017  1.00  0.00    +0.173 C 
ATOM     21  O   UNL     1     -11.668 -15.625  31.843  1.00  0.00    -0.289 OA
ATOM     22  C   UNL     1      -9.577 -14.843  31.105  1.00  0.00    +0.103 C 
BRANCH  20  23
ATOM     23  C   UNL     1      -7.479 -13.905  30.409  1.00  0.00    +0.169 A 
ATOM     24  C   UNL     1      -6.224 -13.580  30.918  1.00  0.00    +0.054 A 
ATOM     25  O   UNL     1      -7.279 -14.398  29.133  1.00  0.00    -0.461 OA
ATOM     26  C   UNL     1      -5.254 -13.884  29.933  1.00  0.00    +0.043 A 
ATOM     27  C   UNL     1      -5.953 -14.380  28.863  1.00  0.00    +0.196 A 
ENDBRANCH  20  23
ENDBRANCH  11  12
ENDBRANCH  10  11
ENDBRANCH   3  10
TORSDOF 7
ENDMDL
MODEL 5
REMARK VINA RESULT:    -9.448      1.914      5.136
REMARK INTER + INTRA:         -14.679
REMARK INTER:                 -13.000
REMARK INTRA:                  -1.679
REMARK UNBOUND:                -1.365
REMARK SMILES CC(C)=CCCC(C)=CCOc1ccc2c(=O)cc(-c3ccco3)oc2c1
REMARK SMILES IDX 7 1 8 2 9 3 6 4 5 5 4 6 2 7 1 8 3 9 10 10 11 11 12 12 27 13
REMARK SMILES IDX 13 14 26 15 14 16 15 17 25 18 16 19 19 20 17 21 18 22 20 23
REMARK SMILES IDX 21 24 24 25 22 26 23 27
REMARK H PARENT
ROOT
ATOM      1  C   UNL     1      -7.283  -6.155  32.044  1.00  0.00    -0.074 C 
ATOM      2  C   UNL     1      -7.055  -6.525  33.486  1.00  0.00    +0.039 C 
ATOM      3  C   UNL     1      -8.485  -5.851  31.513  1.00  0.00    +0.013 C 
ENDROOT
BRANCH   1   4
ATOM      4  C   UNL     1      -6.040  -6.156  31.173  1.00  0.00    +0.034 C 
BRANCH   4   5
ATOM      5  C   UNL     1      -4.994  -7.177  31.636  1.00  0.00    +0.032 C 
BRANCH   5   6
ATOM      6  C   UNL     1      -4.925  -8.354  30.702  1.00  0.00    -0.028 C 
ATOM      7  C   UNL     1      -5.394  -9.600  30.913  1.00  0.00    -0.080 C 
ATOM      8  C   UNL     1      -6.137 -10.045  32.143  1.00  0.00    +0.039 C 
ATOM      9  C   UNL     1      -5.207 -10.677  29.877  1.00  0.00    +0.039 C 
ENDBRANCH   5   6
ENDBRANCH   4   5
ENDBRANCH   1   4
BRANCH   3  10
ATOM     10  C   UNL     1      -9.848  -5.860  32.156  1.00  0.00    +0.257 C 
BRANCH  10  11
ATOM     11  O   UNL     1     -10.822  -6.619  31.442  1.00  0.00    -0.489 OA
BRANCH  11  12
ATOM     12  C   UNL     1     -11.149  -7.867  31.894  1.00  0.00    +0.123 A 
ATOM     13  C   UNL     1     -10.273  -8.878  31.481  1.00  0.00    +0.094 A 
ATOM     14  C   UNL     1     -12.252  -8.196  32.684  1.00  0.00    +0.047 A 
ATOM     15  C   UNL     1     -10.491 -10.201  31.861  1.00  0.00    +0.142 A 
ATOM     16  C   UNL     1     -12.473  -9.524  33.068  1.00  0.00    +0.020 A 
ATOM     17  C   UNL     1     -11.587 -10.521  32.655  1.00  0.00    +0.065 A 
ATOM     18  O   UNL     1      -9.591 -11.139  31.422  1.00  0.00    -0.452 OA
ATOM     19  C   UNL     1     -11.794 -11.923  33.043  1.00  0.00    +0.193 C 
ATOM     20  C   UNL     1      -9.792 -12.460  31.789  1.00  0.00    +0.173 C 
ATOM     21  O   UNL     1     -12.735 -12.276  33.740  1.00  0.00    -0.289 OA
ATOM     22  C   UNL     1     -10.806 -12.895  32.548  1.00  0.00    +0.103 C 
BRANCH  20  23
ATOM     23  C   UNL     1      -8.816 -13.375  31.293  1.00  0.00    +0.169 A 
ATOM     24  C   UNL     1      -7.437 -13.223  31.178  1.00  0.00    +0.054 A 
ATOM     25  O   UNL     1      -9.121 -14.638  30.820  1.00  0.00    -0.461 OA
ATOM     26  C   UNL     1      -6.903 -14.413  30.629  1.00  0.00    +0.043 A 
ATOM     27  C   UNL     1      -7.975 -15.244  30.428  1.00  0.00    +0.196 A 
ENDBRANCH  20  23
ENDBRANCH  11  12
ENDBRANCH  10  11
ENDBRANCH   3  10
TORSDOF 7
ENDMDL
MODEL 6
REMARK VINA RESULT:    -9.266      2.104      5.472
REMARK INTER + INTRA:         -14.423
REMARK INTER:                 -13.028
REMARK INTRA:                  -1.394
REMARK UNBOUND:                -1.365
REMARK SMILES CC(C)=CCCC(C)=CCOc1ccc2c(=O)cc(-c3ccco3)oc2c1
REMARK SMILES IDX 7 1 8 2 9 3 6 4 5 5 4 6 2 7 1 8 3 9 10 10 11 11 12 12 27 13
REMARK SMILES IDX 13 14 26 15 14 16 15 17 25 18 16 19 19 20 17 21 18 22 20 23
REMARK SMILES IDX 21 24 24 25 22 26 23 27
REMARK H PARENT
ROOT
ATOM      1  C   UNL     1      -5.223 -10.432  30.975  1.00  0.00    -0.074 C 
ATOM      2  C   UNL     1      -4.806 -10.757  32.385  1.00  0.00    +0.039 C 
ATOM      3  C   UNL     1      -5.600  -9.208  30.551  1.00  0.00    +0.013 C 
ENDROOT
BRANCH   1   4
ATOM      4  C   UNL     1      -5.216 -11.606  30.013  1.00  0.00    +0.034 C 
BRANCH   4   5
ATOM      5  C   UNL     1      -5.271 -12.959  30.731  1.00  0.00    +0.032 C 
BRANCH   5   6
ATOM      6  C   UNL     1      -6.511 -13.727  30.362  1.00  0.00    -0.028 C 
ATOM      7  C   UNL     1      -7.752 -13.573  30.865  1.00  0.00    -0.080 C 
ATOM      8  C   UNL     1      -8.149 -12.542  31.886  1.00  0.00    +0.039 C 
ATOM      9  C   UNL     1      -8.882 -14.457  30.406  1.00  0.00    +0.039 C 
ENDBRANCH   5   6
ENDBRANCH   4   5
ENDBRANCH   1   4
BRANCH   3  10
ATOM     10  C   UNL     1      -5.757  -7.928  31.332  1.00  0.00    +0.257 C 
BRANCH  10  11
ATOM     11  O   UNL     1      -6.720  -7.030  30.786  1.00  0.00    -0.489 OA
BRANCH  11  12
ATOM     12  C   UNL     1      -8.012  -7.096  31.227  1.00  0.00    +0.123 A 
ATOM     13  C   UNL     1      -8.462  -8.393  31.501  1.00  0.00    +0.094 A 
ATOM     14  C   UNL     1      -8.883  -6.018  31.398  1.00  0.00    +0.047 A 
ATOM     15  C   UNL     1      -9.764  -8.609  31.950  1.00  0.00    +0.142 A 
ATOM     16  C   UNL     1     -10.190  -6.232  31.849  1.00  0.00    +0.020 A 
ATOM     17  C   UNL     1     -10.623  -7.530  32.125  1.00  0.00    +0.065 A 
ATOM     18  O   UNL     1     -10.136  -9.906  32.202  1.00  0.00    -0.452 OA
ATOM     19  C   UNL     1     -11.990  -7.785  32.601  1.00  0.00    +0.193 C 
ATOM     20  C   UNL     1     -11.427 -10.141  32.647  1.00  0.00    +0.173 C 
ATOM     21  O   UNL     1     -12.798  -6.884  32.779  1.00  0.00    -0.289 OA
ATOM     22  C   UNL     1     -12.346  -9.190  32.855  1.00  0.00    +0.103 C 
BRANCH  20  23
ATOM     23  C   UNL     1     -11.739 -11.512  32.885  1.00  0.00    +0.169 A 
ATOM     24  C   UNL     1     -11.697 -12.595  32.010  1.00  0.00    +0.054 A 
ATOM     25  O   UNL     1     -12.161 -12.001  34.107  1.00  0.00    -0.461 OA
ATOM     26  C   UNL     1     -12.099 -13.753  32.717  1.00  0.00    +0.043 A 
ATOM     27  C   UNL     1     -12.371 -13.334  33.993  1.00  0.00    +0.196 A 
ENDBRANCH  20  23
ENDBRANCH  11  12
ENDBRANCH  10  11
ENDBRANCH   3  10
TORSDOF 7
ENDMDL
MODEL 7
REMARK VINA RESULT:    -9.237      2.031      6.420
REMARK INTER + INTRA:         -14.382
REMARK INTER:                 -13.652
REMARK INTRA:                  -0.730
REMARK UNBOUND:                -1.365
REMARK SMILES CC(C)=CCCC(C)=CCOc1ccc2c(=O)cc(-c3ccco3)oc2c1
REMARK SMILES IDX 7 1 8 2 9 3 6 4 5 5 4 6 2 7 1 8 3 9 10 10 11 11 12 12 27 13
REMARK SMILES IDX 13 14 26 15 14 16 15 17 25 18 16 19 19 20 17 21 18 22 20 23
REMARK SMILES IDX 21 24 24 25 22 26 23 27
REMARK H PARENT
ROOT
ATOM      1  C   UNL     1     -12.070  -8.478  32.551  1.00  0.00    -0.074 C 
ATOM      2  C   UNL     1     -13.038  -7.338  32.720  1.00  0.00    +0.039 C 
ATOM      3  C   UNL     1     -11.007  -8.463  31.721  1.00  0.00    +0.013 C 
ENDROOT
BRANCH   1   4
ATOM      4  C   UNL     1     -12.371  -9.710  33.385  1.00  0.00    +0.034 C 
BRANCH   4   5
ATOM      5  C   UNL     1     -11.187 -10.682  33.452  1.00  0.00    +0.032 C 
BRANCH   5   6
ATOM      6  C   UNL     1     -11.646 -12.113  33.370  1.00  0.00    -0.028 C 
ATOM      7  C   UNL     1     -11.481 -12.970  32.343  1.00  0.00    -0.080 C 
ATOM      8  C   UNL     1     -10.746 -12.659  31.068  1.00  0.00    +0.039 C 
ATOM      9  C   UNL     1     -12.039 -14.368  32.412  1.00  0.00    +0.039 C 
ENDBRANCH   5   6
ENDBRANCH   4   5
ENDBRANCH   1   4
BRANCH   3  10
ATOM     10  C   UNL     1     -10.561  -7.397  30.752  1.00  0.00    +0.257 C 
BRANCH  10  11
ATOM     11  O   UNL     1      -9.493  -6.585  31.235  1.00  0.00    -0.489 OA
BRANCH  11  12
ATOM     12  C   UNL     1      -8.277  -7.164  31.470  1.00  0.00    +0.123 A 
ATOM     13  C   UNL     1      -8.235  -8.540  31.220  1.00  0.00    +0.094 A 
ATOM     14  C   UNL     1      -7.131  -6.517  31.939  1.00  0.00    +0.047 A 
ATOM     15  C   UNL     1      -7.060  -9.261  31.425  1.00  0.00    +0.142 A 
ATOM     16  C   UNL     1      -5.950  -7.238  32.145  1.00  0.00    +0.020 A 
ATOM     17  C   UNL     1      -5.920  -8.609  31.885  1.00  0.00    +0.065 A 
ATOM     18  O   UNL     1      -7.090 -10.606  31.156  1.00  0.00    -0.452 OA
ATOM     19  C   UNL     1      -4.694  -9.392  32.093  1.00  0.00    +0.193 C 
ATOM     20  C   UNL     1      -5.932 -11.339  31.357  1.00  0.00    +0.173 C 
ATOM     21  O   UNL     1      -3.655  -8.884  32.493  1.00  0.00    -0.289 OA
ATOM     22  C   UNL     1      -4.773 -10.830  31.794  1.00  0.00    +0.103 C 
BRANCH  20  23
ATOM     23  C   UNL     1      -6.043 -12.730  31.057  1.00  0.00    +0.169 A 
ATOM     24  C   UNL     1      -7.173 -13.482  30.747  1.00  0.00    +0.054 A 
ATOM     25  O   UNL     1      -4.965 -13.596  31.031  1.00  0.00    -0.461 OA
ATOM     26  C   UNL     1      -6.769 -14.821  30.530  1.00  0.00    +0.043 A 
ATOM     27  C   UNL     1      -5.411 -14.835  30.716  1.00  0.00    +0.196 A 
ENDBRANCH  20  23
ENDBRANCH  11  12
ENDBRANCH  10  11
ENDBRANCH   3  10
TORSDOF 7
ENDMDL
MODEL 8
REMARK VINA RESULT:    -9.191      1.970      5.235
REMARK INTER + INTRA:         -14.318
REMARK INTER:                 -13.167
REMARK INTRA:                  -1.151
REMARK UNBOUND:                -1.365
REMARK SMILES CC(C)=CCCC(C)=CCOc1ccc2c(=O)cc(-c3ccco3)oc2c1
REMARK SMILES IDX 7 1 8 2 9 3 6 4 5 5 4 6 2 7 1 8 3 9 10 10 11 11 12 12 27 13
REMARK SMILES IDX 13 14 26 15 14 16 15 17 25 18 16 19 19 20 17 21 18 22 20 23
REMARK SMILES IDX 21 24 24 25 22 26 23 27
REMARK H PARENT
ROOT
ATOM      1  C   UNL     1      -4.757  -9.770  30.570  1.00  0.00    -0.074 C 
ATOM      2  C   UNL     1      -4.873  -8.872  29.367  1.00  0.00    +0.039 C 
ATOM      3  C   UNL     1      -4.312  -9.374  31.780  1.00  0.00    +0.013 C 
ENDROOT
BRANCH   1   4
ATOM      4  C   UNL     1      -5.168 -11.213  30.340  1.00  0.00    +0.034 C 
BRANCH   4   5
ATOM      5  C   UNL     1      -5.708 -11.882  31.610  1.00  0.00    +0.032 C 
BRANCH   5   6
ATOM      6  C   UNL     1      -6.999 -12.606  31.342  1.00  0.00    -0.028 C 
ATOM      7  C   UNL     1      -7.156 -13.869  30.896  1.00  0.00    -0.080 C 
ATOM      8  C   UNL     1      -6.035 -14.832  30.617  1.00  0.00    +0.039 C 
ATOM      9  C   UNL     1      -8.532 -14.430  30.646  1.00  0.00    +0.039 C 
ENDBRANCH   5   6
ENDBRANCH   4   5
ENDBRANCH   1   4
BRANCH   3  10
ATOM     10  C   UNL     1      -3.783  -8.031  32.216  1.00  0.00    +0.257 C 
BRANCH  10  11
ATOM     11  O   UNL     1      -4.700  -7.275  33.004  1.00  0.00    -0.489 OA
BRANCH  11  12
ATOM     12  C   UNL     1      -5.985  -7.126  32.561  1.00  0.00    +0.123 A 
ATOM     13  C   UNL     1      -6.813  -8.227  32.812  1.00  0.00    +0.094 A 
ATOM     14  C   UNL     1      -6.504  -6.016  31.891  1.00  0.00    +0.047 A 
ATOM     15  C   UNL     1      -8.147  -8.215  32.407  1.00  0.00    +0.142 A 
ATOM     16  C   UNL     1      -7.843  -6.002  31.484  1.00  0.00    +0.020 A 
ATOM     17  C   UNL     1      -8.659  -7.103  31.747  1.00  0.00    +0.065 A 
ATOM     18  O   UNL     1      -8.901  -9.326  32.688  1.00  0.00    -0.452 OA
ATOM     19  C   UNL     1     -10.069  -7.116  31.331  1.00  0.00    +0.193 C 
ATOM     20  C   UNL     1     -10.228  -9.334  32.292  1.00  0.00    +0.173 C 
ATOM     21  O   UNL     1     -10.586  -6.172  30.749  1.00  0.00    -0.289 OA
ATOM     22  C   UNL     1     -10.838  -8.328  31.651  1.00  0.00    +0.103 C 
BRANCH  20  23
ATOM     23  C   UNL     1     -10.945 -10.523  32.618  1.00  0.00    +0.169 A 
ATOM     24  C   UNL     1     -10.572 -11.855  32.455  1.00  0.00    +0.054 A 
ATOM     25  O   UNL     1     -12.207 -10.527  33.183  1.00  0.00    -0.461 OA
ATOM     26  C   UNL     1     -11.625 -12.672  32.931  1.00  0.00    +0.043 A 
ATOM     27  C   UNL     1     -12.599 -11.810  33.364  1.00  0.00    +0.196 A 
ENDBRANCH  20  23
ENDBRANCH  11  12
ENDBRANCH  10  11
ENDBRANCH   3  10
TORSDOF 7
ENDMDL
MODEL 9
REMARK VINA RESULT:    -9.183      2.760      7.433
REMARK INTER + INTRA:         -14.306
REMARK INTER:                 -12.906
REMARK INTRA:                  -1.400
REMARK UNBOUND:                -1.365
REMARK SMILES CC(C)=CCCC(C)=CCOc1ccc2c(=O)cc(-c3ccco3)oc2c1
REMARK SMILES IDX 7 1 8 2 9 3 6 4 5 5 4 6 2 7 1 8 3 9 10 10 11 11 12 12 27 13
REMARK SMILES IDX 13 14 26 15 14 16 15 17 25 18 16 19 19 20 17 21 18 22 20 23
REMARK SMILES IDX 21 24 24 25 22 26 23 27
REMARK H PARENT
ROOT
ATOM      1  C   UNL     1     -12.007  -8.463  32.453  1.00  0.00    -0.074 C 
ATOM      2  C   UNL     1     -13.012  -7.412  32.844  1.00  0.00    +0.039 C 
ATOM      3  C   UNL     1     -10.863  -8.216  31.781  1.00  0.00    +0.013 C 
ENDROOT
BRANCH   1   4
ATOM      4  C   UNL     1     -12.367  -9.882  32.855  1.00  0.00    +0.034 C 
BRANCH   4   5
ATOM      5  C   UNL     1     -11.235 -10.586  33.611  1.00  0.00    +0.032 C 
BRANCH   5   6
ATOM      6  C   UNL     1     -10.674 -11.734  32.816  1.00  0.00    -0.028 C 
ATOM      7  C   UNL     1      -9.438 -11.844  32.291  1.00  0.00    -0.080 C 
ATOM      8  C   UNL     1      -8.340 -10.828  32.447  1.00  0.00    +0.039 C 
ATOM      9  C   UNL     1      -9.050 -13.056  31.486  1.00  0.00    +0.039 C 
ENDBRANCH   5   6
ENDBRANCH   4   5
ENDBRANCH   1   4
BRANCH   3  10
ATOM     10  C   UNL     1     -10.342  -6.918  31.218  1.00  0.00    +0.257 C 
BRANCH  10  11
ATOM     11  O   UNL     1      -9.496  -6.197  32.111  1.00  0.00    -0.489 OA
BRANCH  11  12
ATOM     12  C   UNL     1      -8.202  -6.609  32.273  1.00  0.00    +0.123 A 
ATOM     13  C   UNL     1      -7.662  -7.265  31.161  1.00  0.00    +0.094 A 
ATOM     14  C   UNL     1      -7.423  -6.449  33.420  1.00  0.00    +0.047 A 
ATOM     15  C   UNL     1      -6.355  -7.747  31.190  1.00  0.00    +0.142 A 
ATOM     16  C   UNL     1      -6.109  -6.930  33.452  1.00  0.00    +0.020 A 
ATOM     17  C   UNL     1      -5.581  -7.577  32.334  1.00  0.00    +0.065 A 
ATOM     18  O   UNL     1      -5.889  -8.377  30.064  1.00  0.00    -0.452 OA
ATOM     19  C   UNL     1      -4.204  -8.093  32.338  1.00  0.00    +0.193 C 
ATOM     20  C   UNL     1      -4.593  -8.863  30.075  1.00  0.00    +0.173 C 
ATOM     21  O   UNL     1      -3.467  -7.977  33.308  1.00  0.00    -0.289 OA
ATOM     22  C   UNL     1      -3.749  -8.763  31.110  1.00  0.00    +0.103 C 
BRANCH  20  23
ATOM     23  C   UNL     1      -4.183  -9.506  28.869  1.00  0.00    +0.169 A 
ATOM     24  C   UNL     1      -3.482  -8.988  27.783  1.00  0.00    +0.054 A 
ATOM     25  O   UNL     1      -4.442 -10.834  28.582  1.00  0.00    -0.461 OA
ATOM     26  C   UNL     1      -3.315 -10.020  26.829  1.00  0.00    +0.043 A 
ATOM     27  C   UNL     1      -3.920 -11.125  27.367  1.00  0.00    +0.196 A 
ENDBRANCH  20  23
ENDBRANCH  11  12
ENDBRANCH  10  11
ENDBRANCH   3  10
TORSDOF 7
ENDMDL
