MODEL 1
REMARK VINA RESULT:   -10.470      0.000      0.000
REMARK INTER + INTRA:         -18.886
REMARK INTER:                 -17.203
REMARK INTRA:                  -1.683
REMARK UNBOUND:                -1.683
REMARK SMILES CS(=O)(=O)CCNCc1ccc(-c2ccc3ncnc(Nc4ccc(OCc5cccc(F)c5)c(Cl)c4)c3c2)o1
REMARK SMILES IDX 13 1 14 2 15 3 16 4 17 5 18 6 19 7 20 8 38 9 39 10 12 11
REMARK SMILES IDX 9 12 10 13 40 14 11 15 8 16 7 17 6 19 5 20 2 21 3 22 4 23
REMARK SMILES IDX 1 24 21 25 22 27 37 28 23 29 35 30 24 31 25 32 36 33 26 34
REMARK SMILES IDX 27 35 28 36 34 37 29 38 32 39 30 40 31 41 33 42
REMARK H PARENT 7 18 21 26
ROOT
ATOM      1  C   UNL     1      -9.110  -7.415  31.989  1.00  0.00    +0.018 A 
ATOM      2  C   UNL     1      -8.713  -6.186  31.459  1.00  0.00    +0.014 A 
ATOM      3  C   UNL     1      -7.356  -5.869  31.325  1.00  0.00    +0.030 A 
ATOM      4  C   UNL     1      -6.355  -6.753  31.700  1.00  0.00    +0.076 A 
ATOM      5  N   UNL     1      -5.082  -6.376  31.555  1.00  0.00    -0.236 NA
ATOM      6  C   UNL     1      -4.150  -7.253  31.936  1.00  0.00    +0.224 A 
ATOM      7  N   UNL     1      -4.371  -8.473  32.433  1.00  0.00    -0.219 NA
ATOM      8  C   UNL     1      -5.655  -8.851  32.563  1.00  0.00    +0.141 A 
ATOM      9  C   UNL     1      -6.725  -8.000  32.216  1.00  0.00    +0.044 A 
ATOM     10  C   UNL     1      -8.105  -8.315  32.365  1.00  0.00    +0.026 A 
ENDROOT
BRANCH   1  11
ATOM     11  C   UNL     1     -10.521  -7.756  32.154  1.00  0.00    +0.134 A 
ATOM     12  C   UNL     1     -12.143  -9.130  32.742  1.00  0.00    +0.118 A 
ATOM     13  C   UNL     1     -12.754  -7.980  32.292  1.00  0.00    +0.047 A 
ATOM     14  O   UNL     1     -10.789  -9.001  32.652  1.00  0.00    -0.460 OA
ATOM     15  C   UNL     1     -11.713  -7.096  31.917  1.00  0.00    +0.051 A 
BRANCH  12  16
ATOM     16  C   UNL     1     -12.655 -10.426  33.266  1.00  0.00    +0.157 C 
BRANCH  16  17
ATOM     17  N   UNL     1     -11.554 -11.247  33.778  1.00  0.00    -0.309 NA
ATOM     18  H   UNL     1     -11.210 -10.819  34.638  1.00  0.00    +0.123 HD
BRANCH  17  19
ATOM     19  C   UNL     1     -11.959 -12.630  34.052  1.00  0.00    +0.097 C 
BRANCH  19  20
ATOM     20  C   UNL     1     -12.155 -13.438  32.777  1.00  0.00    +0.152 C 
BRANCH  20  21
ATOM     21  S   UNL     1     -12.889 -15.033  33.103  1.00  0.00    +0.148 S 
ATOM     22  O   UNL     1     -14.219 -15.061  32.527  1.00  0.00    -0.229 OA
ATOM     23  O   UNL     1     -12.686 -15.329  34.508  1.00  0.00    -0.229 OA
ATOM     24  C   UNL     1     -11.875 -16.166  32.181  1.00  0.00    +0.158 C 
ENDBRANCH  20  21
ENDBRANCH  19  20
ENDBRANCH  17  19
ENDBRANCH  16  17
ENDBRANCH  12  16
ENDBRANCH   1  11
BRANCH   8  25
ATOM     25  N   UNL     1      -5.948 -10.160  33.042  1.00  0.00    -0.340 N 
ATOM     26  H   UNL     1      -6.609 -10.077  33.808  1.00  0.00    +0.168 HD
BRANCH  25  27
ATOM     27  C   UNL     1      -6.176 -11.331  32.284  1.00  0.00    +0.041 A 
ATOM     28  C   UNL     1      -7.464 -11.799  31.988  1.00  0.00    +0.050 A 
ATOM     29  C   UNL     1      -5.082 -11.980  31.688  1.00  0.00    +0.030 A 
ATOM     30  C   UNL     1      -7.652 -12.926  31.183  1.00  0.00    +0.085 A 
ATOM     31  C   UNL     1      -5.263 -13.106  30.881  1.00  0.00    +0.050 A 
ATOM     32  C   UNL     1      -6.547 -13.594  30.652  1.00  0.00    +0.138 A 
ATOM     33 Cl   UNL     1      -9.264 -13.450  30.855  1.00  0.00    -0.080 Cl
BRANCH  32  34
ATOM     34  O   UNL     1      -6.677 -14.686  29.835  1.00  0.00    -0.487 OA
BRANCH  34  35
ATOM     35  C   UNL     1      -6.131 -14.431  28.533  1.00  0.00    +0.265 C 
BRANCH  35  36
ATOM     36  C   UNL     1      -4.979 -15.370  28.267  1.00  0.00    -0.008 A 
ATOM     37  C   UNL     1      -4.464 -16.178  29.288  1.00  0.00    +0.046 A 
ATOM     38  C   UNL     1      -4.394 -15.432  26.991  1.00  0.00    +0.007 A 
ATOM     39  C   UNL     1      -3.394 -17.028  29.028  1.00  0.00    +0.123 A 
ATOM     40  C   UNL     1      -3.321 -16.290  26.740  1.00  0.00    +0.003 A 
ATOM     41  C   UNL     1      -2.820 -17.093  27.763  1.00  0.00    +0.039 A 
ATOM     42  F   UNL     1      -2.908 -17.795  30.012  1.00  0.00    -0.207 F 
ENDBRANCH  35  36
ENDBRANCH  34  35
ENDBRANCH  32  34
ENDBRANCH  25  27
ENDBRANCH   8  25
TORSDOF 11
ENDMDL
MODEL 2
REMARK VINA RESULT:    -9.726      3.410      7.308
REMARK INTER + INTRA:         -17.663
REMARK INTER:                 -15.819
REMARK INTRA:                  -1.844
REMARK UNBOUND:                -1.683
REMARK SMILES CS(=O)(=O)CCNCc1ccc(-c2ccc3ncnc(Nc4ccc(OCc5cccc(F)c5)c(Cl)c4)c3c2)o1
REMARK SMILES IDX 13 1 14 2 15 3 16 4 17 5 18 6 19 7 20 8 38 9 39 10 12 11
REMARK SMILES IDX 9 12 10 13 40 14 11 15 8 16 7 17 6 19 5 20 2 21 3 22 4 23
REMARK SMILES IDX 1 24 21 25 22 27 37 28 23 29 35 30 24 31 25 32 36 33 26 34
REMARK SMILES IDX 27 35 28 36 34 37 29 38 32 39 30 40 31 41 33 42
REMARK H PARENT 7 18 21 26
ROOT
ATOM      1  C   UNL     1      -4.295  -9.964  29.741  1.00  0.00    +0.018 A 
ATOM      2  C   UNL     1      -3.721  -9.671  28.503  1.00  0.00    +0.014 A 
ATOM      3  C   UNL     1      -3.621 -10.652  27.509  1.00  0.00    +0.030 A 
ATOM      4  C   UNL     1      -4.091 -11.943  27.703  1.00  0.00    +0.076 A 
ATOM      5  N   UNL     1      -3.950 -12.830  26.714  1.00  0.00    -0.236 NA
ATOM      6  C   UNL     1      -4.407 -14.064  26.945  1.00  0.00    +0.224 A 
ATOM      7  N   UNL     1      -5.002 -14.488  28.063  1.00  0.00    -0.219 NA
ATOM      8  C   UNL     1      -5.153 -13.585  29.049  1.00  0.00    +0.141 A 
ATOM      9  C   UNL     1      -4.689 -12.260  28.928  1.00  0.00    +0.044 A 
ATOM     10  C   UNL     1      -4.776 -11.265  29.942  1.00  0.00    +0.026 A 
ENDROOT
BRANCH   1  11
ATOM     11  C   UNL     1      -4.391  -8.958  30.796  1.00  0.00    +0.134 A 
ATOM     12  C   UNL     1      -5.183  -7.079  31.637  1.00  0.00    +0.118 A 
ATOM     13  C   UNL     1      -4.328  -7.599  32.586  1.00  0.00    +0.047 A 
ATOM     14  O   UNL     1      -5.217  -7.897  30.547  1.00  0.00    -0.460 OA
ATOM     15  C   UNL     1      -3.821  -8.807  32.047  1.00  0.00    +0.051 A 
BRANCH  12  16
ATOM     16  C   UNL     1      -6.020  -5.851  31.575  1.00  0.00    +0.157 C 
BRANCH  16  17
ATOM     17  N   UNL     1      -7.415  -6.191  31.280  1.00  0.00    -0.309 NA
ATOM     18  H   UNL     1      -7.438  -7.135  30.893  1.00  0.00    +0.123 HD
BRANCH  17  19
ATOM     19  C   UNL     1      -8.274  -6.134  32.469  1.00  0.00    +0.097 C 
BRANCH  19  20
ATOM     20  C   UNL     1      -9.740  -6.369  32.133  1.00  0.00    +0.152 C 
BRANCH  20  21
ATOM     21  S   UNL     1      -9.994  -7.935  31.314  1.00  0.00    +0.148 S 
ATOM     22  O   UNL     1      -8.844  -8.783  31.560  1.00  0.00    -0.229 OA
ATOM     23  O   UNL     1     -10.431  -7.656  29.960  1.00  0.00    -0.229 OA
ATOM     24  C   UNL     1     -11.382  -8.644  32.172  1.00  0.00    +0.158 C 
ENDBRANCH  20  21
ENDBRANCH  19  20
ENDBRANCH  17  19
ENDBRANCH  16  17
ENDBRANCH  12  16
ENDBRANCH   1  11
BRANCH   8  25
ATOM     25  N   UNL     1      -5.825 -13.970  30.244  1.00  0.00    -0.340 N 
ATOM     26  H   UNL     1      -5.136 -14.043  30.986  1.00  0.00    +0.168 HD
BRANCH  25  27
ATOM     27  C   UNL     1      -7.066 -13.500  30.732  1.00  0.00    +0.041 A 
ATOM     28  C   UNL     1      -7.161 -12.576  31.782  1.00  0.00    +0.050 A 
ATOM     29  C   UNL     1      -8.244 -13.864  30.060  1.00  0.00    +0.030 A 
ATOM     30  C   UNL     1      -8.403 -12.085  32.197  1.00  0.00    +0.085 A 
ATOM     31  C   UNL     1      -9.488 -13.377  30.469  1.00  0.00    +0.050 A 
ATOM     32  C   UNL     1      -9.568 -12.509  31.555  1.00  0.00    +0.138 A 
ATOM     33 Cl   UNL     1      -8.453 -10.947  33.494  1.00  0.00    -0.080 Cl
BRANCH  32  34
ATOM     34  O   UNL     1     -10.806 -12.039  31.904  1.00  0.00    -0.487 OA
BRANCH  34  35
ATOM     35  C   UNL     1     -11.848 -12.892  31.406  1.00  0.00    +0.265 C 
BRANCH  35  36
ATOM     36  C   UNL     1     -12.124 -13.997  32.397  1.00  0.00    -0.008 A 
ATOM     37  C   UNL     1     -12.066 -15.340  32.005  1.00  0.00    +0.046 A 
ATOM     38  C   UNL     1     -12.464 -13.690  33.725  1.00  0.00    +0.007 A 
ATOM     39  C   UNL     1     -12.337 -16.345  32.928  1.00  0.00    +0.123 A 
ATOM     40  C   UNL     1     -12.733 -14.707  34.644  1.00  0.00    +0.003 A 
ATOM     41  C   UNL     1     -12.667 -16.040  34.244  1.00  0.00    +0.039 A 
ATOM     42  F   UNL     1     -12.280 -17.626  32.543  1.00  0.00    -0.207 F 
ENDBRANCH  35  36
ENDBRANCH  34  35
ENDBRANCH  32  34
ENDBRANCH  25  27
ENDBRANCH   8  25
TORSDOF 11
ENDMDL
MODEL 3
REMARK VINA RESULT:    -9.512      3.125      6.797
REMARK INTER + INTRA:         -17.311
REMARK INTER:                 -15.489
REMARK INTRA:                  -1.822
REMARK UNBOUND:                -1.683
REMARK SMILES CS(=O)(=O)CCNCc1ccc(-c2ccc3ncnc(Nc4ccc(OCc5cccc(F)c5)c(Cl)c4)c3c2)o1
REMARK SMILES IDX 13 1 14 2 15 3 16 4 17 5 18 6 19 7 20 8 38 9 39 10 12 11
REMARK SMILES IDX 9 12 10 13 40 14 11 15 8 16 7 17 6 19 5 20 2 21 3 22 4 23
REMARK SMILES IDX 1 24 21 25 22 27 37 28 23 29 35 30 24 31 25 32 36 33 26 34
REMARK SMILES IDX 27 35 28 36 34 37 29 38 32 39 30 40 31 41 33 42
REMARK H PARENT 7 18 21 26
ROOT
ATOM      1  C   UNL     1      -8.779 -12.936  31.207  1.00  0.00    +0.018 A 
ATOM      2  C   UNL     1      -9.341 -13.936  30.411  1.00  0.00    +0.014 A 
ATOM      3  C   UNL     1      -8.567 -14.617  29.463  1.00  0.00    +0.030 A 
ATOM      4  C   UNL     1      -7.220 -14.339  29.279  1.00  0.00    +0.076 A 
ATOM      5  N   UNL     1      -6.549 -15.020  28.347  1.00  0.00    -0.236 NA
ATOM      6  C   UNL     1      -5.257 -14.715  28.195  1.00  0.00    +0.224 A 
ATOM      7  N   UNL     1      -4.574 -13.807  28.897  1.00  0.00    -0.219 NA
ATOM      8  C   UNL     1      -5.254 -13.135  29.844  1.00  0.00    +0.141 A 
ATOM      9  C   UNL     1      -6.627 -13.355  30.077  1.00  0.00    +0.044 A 
ATOM     10  C   UNL     1      -7.419 -12.654  31.030  1.00  0.00    +0.026 A 
ENDROOT
BRANCH   1  11
ATOM     11  C   UNL     1      -9.576 -12.203  32.187  1.00  0.00    +0.134 A 
ATOM     12  C   UNL     1     -11.444 -11.827  33.298  1.00  0.00    +0.118 A 
ATOM     13  C   UNL     1     -10.532 -10.898  33.749  1.00  0.00    +0.047 A 
ATOM     14  O   UNL     1     -10.870 -12.616  32.345  1.00  0.00    -0.460 OA
ATOM     15  C   UNL     1      -9.331 -11.141  33.038  1.00  0.00    +0.051 A 
BRANCH  12  16
ATOM     16  C   UNL     1     -12.868 -12.109  33.626  1.00  0.00    +0.157 C 
BRANCH  16  17
ATOM     17  N   UNL     1     -13.563 -12.674  32.466  1.00  0.00    -0.309 NA
ATOM     18  H   UNL     1     -12.883 -12.796  31.715  1.00  0.00    +0.123 HD
BRANCH  17  19
ATOM     19  C   UNL     1     -14.197 -13.965  32.760  1.00  0.00    +0.097 C 
BRANCH  19  20
ATOM     20  C   UNL     1     -13.672 -15.082  31.869  1.00  0.00    +0.152 C 
BRANCH  20  21
ATOM     21  S   UNL     1     -12.417 -16.054  32.687  1.00  0.00    +0.148 S 
ATOM     22  O   UNL     1     -11.113 -15.606  32.238  1.00  0.00    -0.229 OA
ATOM     23  O   UNL     1     -12.799 -17.448  32.573  1.00  0.00    -0.229 OA
ATOM     24  C   UNL     1     -12.583 -15.608  34.401  1.00  0.00    +0.158 C 
ENDBRANCH  20  21
ENDBRANCH  19  20
ENDBRANCH  17  19
ENDBRANCH  16  17
ENDBRANCH  12  16
ENDBRANCH   1  11
BRANCH   8  25
ATOM     25  N   UNL     1      -4.563 -12.190  30.654  1.00  0.00    -0.340 N 
ATOM     26  H   UNL     1      -3.587 -12.185  30.375  1.00  0.00    +0.168 HD
BRANCH  25  27
ATOM     27  C   UNL     1      -4.996 -10.903  31.048  1.00  0.00    +0.041 A 
ATOM     28  C   UNL     1      -5.613 -10.660  32.284  1.00  0.00    +0.050 A 
ATOM     29  C   UNL     1      -4.681  -9.801  30.236  1.00  0.00    +0.030 A 
ATOM     30  C   UNL     1      -5.971  -9.365  32.666  1.00  0.00    +0.085 A 
ATOM     31  C   UNL     1      -5.036  -8.503  30.613  1.00  0.00    +0.050 A 
ATOM     32  C   UNL     1      -5.705  -8.289  31.815  1.00  0.00    +0.138 A 
ATOM     33 Cl   UNL     1      -6.724  -9.132  34.202  1.00  0.00    -0.080 Cl
BRANCH  32  34
ATOM     34  O   UNL     1      -6.010  -6.998  32.154  1.00  0.00    -0.487 OA
BRANCH  34  35
ATOM     35  C   UNL     1      -6.791  -6.362  31.132  1.00  0.00    +0.265 C 
BRANCH  35  36
ATOM     36  C   UNL     1      -8.245  -6.736  31.288  1.00  0.00    -0.008 A 
ATOM     37  C   UNL     1      -8.725  -7.959  30.804  1.00  0.00    +0.046 A 
ATOM     38  C   UNL     1      -9.143  -5.851  31.908  1.00  0.00    +0.007 A 
ATOM     39  C   UNL     1     -10.071  -8.282  30.945  1.00  0.00    +0.123 A 
ATOM     40  C   UNL     1     -10.493  -6.186  32.045  1.00  0.00    +0.003 A 
ATOM     41  C   UNL     1     -10.958  -7.407  31.564  1.00  0.00    +0.039 A 
ATOM     42  F   UNL     1     -10.520  -9.453  30.477  1.00  0.00    -0.207 F 
ENDBRANCH  35  36
ENDBRANCH  34  35
ENDBRANCH  32  34
ENDBRANCH  25  27
ENDBRANCH   8  25
TORSDOF 11
ENDMDL
MODEL 4
REMARK VINA RESULT:    -9.031      3.693      8.137
REMARK INTER + INTRA:         -16.521
REMARK INTER:                 -14.801
REMARK INTRA:                  -1.720
REMARK UNBOUND:                -1.683
REMARK SMILES CS(=O)(=O)CCNCc1ccc(-c2ccc3ncnc(Nc4ccc(OCc5cccc(F)c5)c(Cl)c4)c3c2)o1
REMARK SMILES IDX 13 1 14 2 15 3 16 4 17 5 18 6 19 7 20 8 38 9 39 10 12 11
REMARK SMILES IDX 9 12 10 13 40 14 11 15 8 16 7 17 6 19 5 20 2 21 3 22 4 23
REMARK SMILES IDX 1 24 21 25 22 27 37 28 23 29 35 30 24 31 25 32 36 33 26 34
REMARK SMILES IDX 27 35 28 36 34 37 29 38 32 39 30 40 31 41 33 42
REMARK H PARENT 7 18 21 26
ROOT
ATOM      1  C   UNL     1      -9.736 -13.379  31.053  1.00  0.00    +0.018 A 
ATOM      2  C   UNL     1     -10.534 -14.230  31.820  1.00  0.00    +0.014 A 
ATOM      3  C   UNL     1     -11.530 -13.715  32.659  1.00  0.00    +0.030 A 
ATOM      4  C   UNL     1     -11.774 -12.352  32.758  1.00  0.00    +0.076 A 
ATOM      5  N   UNL     1     -12.732 -11.934  33.589  1.00  0.00    -0.236 NA
ATOM      6  C   UNL     1     -12.928 -10.614  33.661  1.00  0.00    +0.224 A 
ATOM      7  N   UNL     1     -12.267  -9.680  32.973  1.00  0.00    -0.219 NA
ATOM      8  C   UNL     1     -11.313 -10.110  32.128  1.00  0.00    +0.141 A 
ATOM      9  C   UNL     1     -11.002 -11.478  31.985  1.00  0.00    +0.044 A 
ATOM     10  C   UNL     1      -9.980 -12.003  31.144  1.00  0.00    +0.026 A 
ENDROOT
BRANCH   1  11
ATOM     11  C   UNL     1      -8.680 -13.898  30.187  1.00  0.00    +0.134 A 
ATOM     12  C   UNL     1      -6.598 -13.947  29.461  1.00  0.00    +0.118 A 
ATOM     13  C   UNL     1      -7.284 -14.897  28.735  1.00  0.00    +0.047 A 
ATOM     14  O   UNL     1      -7.443 -13.334  30.337  1.00  0.00    -0.460 OA
ATOM     15  C   UNL     1      -8.620 -14.867  29.203  1.00  0.00    +0.051 A 
BRANCH  12  16
ATOM     16  C   UNL     1      -5.185 -13.478  29.459  1.00  0.00    +0.157 C 
BRANCH  16  17
ATOM     17  N   UNL     1      -4.867 -12.805  28.197  1.00  0.00    -0.309 NA
ATOM     18  H   UNL     1      -4.311 -11.976  28.408  1.00  0.00    +0.123 HD
BRANCH  17  19
ATOM     19  C   UNL     1      -4.123 -13.665  27.269  1.00  0.00    +0.097 C 
BRANCH  19  20
ATOM     20  C   UNL     1      -3.248 -14.676  27.995  1.00  0.00    +0.152 C 
BRANCH  20  21
ATOM     21  S   UNL     1      -3.761 -16.356  27.674  1.00  0.00    +0.148 S 
ATOM     22  O   UNL     1      -2.629 -17.100  27.159  1.00  0.00    -0.229 OA
ATOM     23  O   UNL     1      -5.007 -16.299  26.933  1.00  0.00    -0.229 OA
ATOM     24  C   UNL     1      -4.145 -17.000  29.286  1.00  0.00    +0.158 C 
ENDBRANCH  20  21
ENDBRANCH  19  20
ENDBRANCH  17  19
ENDBRANCH  16  17
ENDBRANCH  12  16
ENDBRANCH   1  11
BRANCH   8  25
ATOM     25  N   UNL     1     -10.611  -9.161  31.332  1.00  0.00    -0.340 N 
ATOM     26  H   UNL     1     -11.288  -8.651  30.773  1.00  0.00    +0.168 HD
BRANCH  25  27
ATOM     27  C   UNL     1      -9.530  -8.335  31.718  1.00  0.00    +0.041 A 
ATOM     28  C   UNL     1      -8.583  -8.730  32.673  1.00  0.00    +0.050 A 
ATOM     29  C   UNL     1      -9.314  -7.131  31.029  1.00  0.00    +0.030 A 
ATOM     30  C   UNL     1      -7.492  -7.914  32.983  1.00  0.00    +0.085 A 
ATOM     31  C   UNL     1      -8.226  -6.310  31.334  1.00  0.00    +0.050 A 
ATOM     32  C   UNL     1      -7.330  -6.690  32.331  1.00  0.00    +0.138 A 
ATOM     33 Cl   UNL     1      -6.358  -8.459  34.166  1.00  0.00    -0.080 Cl
BRANCH  32  34
ATOM     34  O   UNL     1      -6.265  -5.865  32.578  1.00  0.00    -0.487 OA
BRANCH  34  35
ATOM     35  C   UNL     1      -5.316  -5.902  31.502  1.00  0.00    +0.265 C 
BRANCH  35  36
ATOM     36  C   UNL     1      -4.893  -7.327  31.238  1.00  0.00    -0.008 A 
ATOM     37  C   UNL     1      -4.120  -8.028  32.172  1.00  0.00    +0.046 A 
ATOM     38  C   UNL     1      -5.255  -7.965  30.040  1.00  0.00    +0.007 A 
ATOM     39  C   UNL     1      -3.728  -9.336  31.907  1.00  0.00    +0.123 A 
ATOM     40  C   UNL     1      -4.857  -9.279  29.784  1.00  0.00    +0.003 A 
ATOM     41  C   UNL     1      -4.092  -9.968  30.723  1.00  0.00    +0.039 A 
ATOM     42  F   UNL     1      -2.987  -9.997  32.805  1.00  0.00    -0.207 F 
ENDBRANCH  35  36
ENDBRANCH  34  35
ENDBRANCH  32  34
ENDBRANCH  25  27
ENDBRANCH   8  25
TORSDOF 11
ENDMDL
MODEL 5
REMARK VINA RESULT:    -8.792      3.848      6.908
REMARK INTER + INTRA:         -16.129
REMARK INTER:                 -14.780
REMARK INTRA:                  -1.349
REMARK UNBOUND:                -1.683
REMARK SMILES CS(=O)(=O)CCNCc1ccc(-c2ccc3ncnc(Nc4ccc(OCc5cccc(F)c5)c(Cl)c4)c3c2)o1
REMARK SMILES IDX 13 1 14 2 15 3 16 4 17 5 18 6 19 7 20 8 38 9 39 10 12 11
REMARK SMILES IDX 9 12 10 13 40 14 11 15 8 16 7 17 6 19 5 20 2 21 3 22 4 23
REMARK SMILES IDX 1 24 21 25 22 27 37 28 23 29 35 30 24 31 25 32 36 33 26 34
REMARK SMILES IDX 27 35 28 36 34 37 29 38 32 39 30 40 31 41 33 42
REMARK H PARENT 7 18 21 26
ROOT
ATOM      1  C   UNL     1     -10.921 -11.331  32.121  1.00  0.00    +0.018 A 
ATOM      2  C   UNL     1     -12.013 -11.411  32.988  1.00  0.00    +0.014 A 
ATOM      3  C   UNL     1     -12.679 -10.254  33.410  1.00  0.00    +0.030 A 
ATOM      4  C   UNL     1     -12.296  -8.990  32.984  1.00  0.00    +0.076 A 
ATOM      5  N   UNL     1     -12.970  -7.931  33.439  1.00  0.00    -0.236 NA
ATOM      6  C   UNL     1     -12.563  -6.732  33.012  1.00  0.00    +0.224 A 
ATOM      7  N   UNL     1     -11.558  -6.497  32.165  1.00  0.00    -0.219 NA
ATOM      8  C   UNL     1     -10.892  -7.569  31.700  1.00  0.00    +0.141 A 
ATOM      9  C   UNL     1     -11.217  -8.882  32.100  1.00  0.00    +0.044 A 
ATOM     10  C   UNL     1     -10.532 -10.059  31.684  1.00  0.00    +0.026 A 
ENDROOT
BRANCH   1  11
ATOM     11  C   UNL     1     -10.203 -12.526  31.686  1.00  0.00    +0.134 A 
ATOM     12  C   UNL     1      -8.386 -13.571  30.997  1.00  0.00    +0.118 A 
ATOM     13  C   UNL     1      -9.380 -14.524  31.063  1.00  0.00    +0.047 A 
ATOM     14  O   UNL     1      -8.884 -12.356  31.366  1.00  0.00    -0.460 OA
ATOM     15  C   UNL     1     -10.545 -13.854  31.509  1.00  0.00    +0.051 A 
BRANCH  12  16
ATOM     16  C   UNL     1      -6.952 -13.611  30.603  1.00  0.00    +0.157 C 
BRANCH  16  17
ATOM     17  N   UNL     1      -6.819 -13.680  29.145  1.00  0.00    -0.309 NA
ATOM     18  H   UNL     1      -5.873 -13.388  28.897  1.00  0.00    +0.123 HD
BRANCH  17  19
ATOM     19  C   UNL     1      -7.065 -15.027  28.617  1.00  0.00    +0.097 C 
BRANCH  19  20
ATOM     20  C   UNL     1      -5.915 -15.528  27.754  1.00  0.00    +0.152 C 
BRANCH  20  21
ATOM     21  S   UNL     1      -4.337 -15.332  28.565  1.00  0.00    +0.148 S 
ATOM     22  O   UNL     1      -4.505 -15.583  29.982  1.00  0.00    -0.229 OA
ATOM     23  O   UNL     1      -3.756 -14.087  28.099  1.00  0.00    -0.229 OA
ATOM     24  C   UNL     1      -3.347 -16.649  27.895  1.00  0.00    +0.158 C 
ENDBRANCH  20  21
ENDBRANCH  19  20
ENDBRANCH  17  19
ENDBRANCH  16  17
ENDBRANCH  12  16
ENDBRANCH   1  11
BRANCH   8  25
ATOM     25  N   UNL     1      -9.843  -7.380  30.757  1.00  0.00    -0.340 N 
ATOM     26  H   UNL     1      -9.981  -6.481  30.304  1.00  0.00    +0.168 HD
BRANCH  25  27
ATOM     27  C   UNL     1      -8.469  -7.675  30.915  1.00  0.00    +0.041 A 
ATOM     28  C   UNL     1      -7.539  -6.723  31.357  1.00  0.00    +0.050 A 
ATOM     29  C   UNL     1      -8.036  -9.002  30.755  1.00  0.00    +0.030 A 
ATOM     30  C   UNL     1      -6.200  -7.068  31.562  1.00  0.00    +0.085 A 
ATOM     31  C   UNL     1      -6.699  -9.353  30.959  1.00  0.00    +0.050 A 
ATOM     32  C   UNL     1      -5.777  -8.380  31.336  1.00  0.00    +0.138 A 
ATOM     33 Cl   UNL     1      -5.105  -5.851  32.109  1.00  0.00    -0.080 Cl
BRANCH  32  34
ATOM     34  O   UNL     1      -4.483  -8.776  31.548  1.00  0.00    -0.487 OA
BRANCH  34  35
ATOM     35  C   UNL     1      -4.247 -10.090  31.022  1.00  0.00    +0.265 C 
BRANCH  35  36
ATOM     36  C   UNL     1      -3.814  -9.995  29.579  1.00  0.00    -0.008 A 
ATOM     37  C   UNL     1      -2.798  -9.111  29.194  1.00  0.00    +0.046 A 
ATOM     38  C   UNL     1      -4.439 -10.782  28.597  1.00  0.00    +0.007 A 
ATOM     39  C   UNL     1      -2.421  -9.027  27.857  1.00  0.00    +0.123 A 
ATOM     40  C   UNL     1      -4.051 -10.690  27.258  1.00  0.00    +0.003 A 
ATOM     41  C   UNL     1      -3.036  -9.811  26.887  1.00  0.00    +0.039 A 
ATOM     42  F   UNL     1      -1.450  -8.178  27.499  1.00  0.00    -0.207 F 
ENDBRANCH  35  36
ENDBRANCH  34  35
ENDBRANCH  32  34
ENDBRANCH  25  27
ENDBRANCH   8  25
TORSDOF 11
ENDMDL
MODEL 6
REMARK VINA RESULT:    -8.591      3.701      7.742
REMARK INTER + INTRA:         -15.798
REMARK INTER:                 -13.376
REMARK INTRA:                  -2.422
REMARK UNBOUND:                -1.683
REMARK SMILES CS(=O)(=O)CCNCc1ccc(-c2ccc3ncnc(Nc4ccc(OCc5cccc(F)c5)c(Cl)c4)c3c2)o1
REMARK SMILES IDX 13 1 14 2 15 3 16 4 17 5 18 6 19 7 20 8 38 9 39 10 12 11
REMARK SMILES IDX 9 12 10 13 40 14 11 15 8 16 7 17 6 19 5 20 2 21 3 22 4 23
REMARK SMILES IDX 1 24 21 25 22 27 37 28 23 29 35 30 24 31 25 32 36 33 26 34
REMARK SMILES IDX 27 35 28 36 34 37 29 38 32 39 30 40 31 41 33 42
REMARK H PARENT 7 18 21 26
ROOT
ATOM      1  C   UNL     1      -9.066 -14.419  30.628  1.00  0.00    +0.018 A 
ATOM      2  C   UNL     1      -9.082 -15.267  29.520  1.00  0.00    +0.014 A 
ATOM      3  C   UNL     1      -7.989 -15.327  28.647  1.00  0.00    +0.030 A 
ATOM      4  C   UNL     1      -6.848 -14.562  28.846  1.00  0.00    +0.076 A 
ATOM      5  N   UNL     1      -5.851 -14.661  27.964  1.00  0.00    -0.236 NA
ATOM      6  C   UNL     1      -4.775 -13.901  28.187  1.00  0.00    +0.224 A 
ATOM      7  N   UNL     1      -4.600 -13.064  29.214  1.00  0.00    -0.219 NA
ATOM      8  C   UNL     1      -5.604 -12.980  30.105  1.00  0.00    +0.141 A 
ATOM      9  C   UNL     1      -6.797 -13.717  29.960  1.00  0.00    +0.044 A 
ATOM     10  C   UNL     1      -7.916 -13.647  30.838  1.00  0.00    +0.026 A 
ENDROOT
BRANCH   1  11
ATOM     11  C   UNL     1     -10.205 -14.330  31.539  1.00  0.00    +0.134 A 
ATOM     12  C   UNL     1     -11.413 -13.285  33.060  1.00  0.00    +0.118 A 
ATOM     13  C   UNL     1     -12.043 -14.488  32.824  1.00  0.00    +0.047 A 
ATOM     14  O   UNL     1     -10.293 -13.189  32.288  1.00  0.00    -0.460 OA
ATOM     15  C   UNL     1     -11.269 -15.158  31.845  1.00  0.00    +0.051 A 
BRANCH  12  16
ATOM     16  C   UNL     1     -11.700 -12.137  33.962  1.00  0.00    +0.157 C 
BRANCH  16  17
ATOM     17  N   UNL     1     -11.025 -10.925  33.486  1.00  0.00    -0.309 NA
ATOM     18  H   UNL     1     -10.433 -11.180  32.695  1.00  0.00    +0.123 HD
BRANCH  17  19
ATOM     19  C   UNL     1     -11.967  -9.880  33.069  1.00  0.00    +0.097 C 
BRANCH  19  20
ATOM     20  C   UNL     1     -11.313  -8.837  32.174  1.00  0.00    +0.152 C 
BRANCH  20  21
ATOM     21  S   UNL     1     -10.063  -9.553  31.119  1.00  0.00    +0.148 S 
ATOM     22  O   UNL     1     -10.496 -10.874  30.711  1.00  0.00    -0.229 OA
ATOM     23  O   UNL     1      -8.780  -9.363  31.768  1.00  0.00    -0.229 OA
ATOM     24  C   UNL     1     -10.074  -8.511  29.678  1.00  0.00    +0.158 C 
ENDBRANCH  20  21
ENDBRANCH  19  20
ENDBRANCH  17  19
ENDBRANCH  16  17
ENDBRANCH  12  16
ENDBRANCH   1  11
BRANCH   8  25
ATOM     25  N   UNL     1      -5.451 -12.140  31.245  1.00  0.00    -0.340 N 
ATOM     26  H   UNL     1      -4.875 -12.628  31.924  1.00  0.00    +0.168 HD
BRANCH  25  27
ATOM     27  C   UNL     1      -5.217 -10.746  31.271  1.00  0.00    +0.041 A 
ATOM     28  C   UNL     1      -4.506 -10.121  32.305  1.00  0.00    +0.050 A 
ATOM     29  C   UNL     1      -5.588  -9.972  30.159  1.00  0.00    +0.030 A 
ATOM     30  C   UNL     1      -4.239  -8.749  32.266  1.00  0.00    +0.085 A 
ATOM     31  C   UNL     1      -5.324  -8.601  30.114  1.00  0.00    +0.050 A 
ATOM     32  C   UNL     1      -4.673  -7.986  31.181  1.00  0.00    +0.138 A 
ATOM     33 Cl   UNL     1      -3.356  -8.040  33.570  1.00  0.00    -0.080 Cl
BRANCH  32  34
ATOM     34  O   UNL     1      -4.413  -6.645  31.080  1.00  0.00    -0.487 OA
BRANCH  34  35
ATOM     35  C   UNL     1      -5.546  -5.932  30.565  1.00  0.00    +0.265 C 
BRANCH  35  36
ATOM     36  C   UNL     1      -6.689  -6.003  31.549  1.00  0.00    -0.008 A 
ATOM     37  C   UNL     1      -8.016  -5.899  31.112  1.00  0.00    +0.046 A 
ATOM     38  C   UNL     1      -6.436  -6.157  32.921  1.00  0.00    +0.007 A 
ATOM     39  C   UNL     1      -9.057  -5.954  32.034  1.00  0.00    +0.123 A 
ATOM     40  C   UNL     1      -7.489  -6.212  33.839  1.00  0.00    +0.003 A 
ATOM     41  C   UNL     1      -8.805  -6.112  33.392  1.00  0.00    +0.039 A 
ATOM     42  F   UNL     1     -10.321  -5.851  31.607  1.00  0.00    -0.207 F 
ENDBRANCH  35  36
ENDBRANCH  34  35
ENDBRANCH  32  34
ENDBRANCH  25  27
ENDBRANCH   8  25
TORSDOF 11
ENDMDL
MODEL 7
REMARK VINA RESULT:    -8.578      3.438      7.320
REMARK INTER + INTRA:         -15.777
REMARK INTER:                 -14.473
REMARK INTRA:                  -1.304
REMARK UNBOUND:                -1.683
REMARK SMILES CS(=O)(=O)CCNCc1ccc(-c2ccc3ncnc(Nc4ccc(OCc5cccc(F)c5)c(Cl)c4)c3c2)o1
REMARK SMILES IDX 13 1 14 2 15 3 16 4 17 5 18 6 19 7 20 8 38 9 39 10 12 11
REMARK SMILES IDX 9 12 10 13 40 14 11 15 8 16 7 17 6 19 5 20 2 21 3 22 4 23
REMARK SMILES IDX 1 24 21 25 22 27 37 28 23 29 35 30 24 31 25 32 36 33 26 34
REMARK SMILES IDX 27 35 28 36 34 37 29 38 32 39 30 40 31 41 33 42
REMARK H PARENT 7 18 21 26
ROOT
ATOM      1  C   UNL     1     -10.945 -11.212  32.108  1.00  0.00    +0.018 A 
ATOM      2  C   UNL     1     -12.076 -11.328  32.918  1.00  0.00    +0.014 A 
ATOM      3  C   UNL     1     -12.770 -10.191  33.347  1.00  0.00    +0.030 A 
ATOM      4  C   UNL     1     -12.378  -8.911  32.983  1.00  0.00    +0.076 A 
ATOM      5  N   UNL     1     -13.082  -7.872  33.440  1.00  0.00    -0.236 NA
ATOM      6  C   UNL     1     -12.665  -6.657  33.074  1.00  0.00    +0.224 A 
ATOM      7  N   UNL     1     -11.622  -6.386  32.285  1.00  0.00    -0.219 NA
ATOM      8  C   UNL     1     -10.926  -7.438  31.816  1.00  0.00    +0.141 A 
ATOM      9  C   UNL     1     -11.259  -8.766  32.155  1.00  0.00    +0.044 A 
ATOM     10  C   UNL     1     -10.545  -9.922  31.733  1.00  0.00    +0.026 A 
ENDROOT
BRANCH   1  11
ATOM     11  C   UNL     1     -10.196 -12.387  31.668  1.00  0.00    +0.134 A 
ATOM     12  C   UNL     1      -8.416 -13.355  30.796  1.00  0.00    +0.118 A 
ATOM     13  C   UNL     1      -9.303 -14.368  31.092  1.00  0.00    +0.047 A 
ATOM     14  O   UNL     1      -8.958 -12.151  31.137  1.00  0.00    -0.460 OA
ATOM     15  C   UNL     1     -10.445 -13.747  31.655  1.00  0.00    +0.051 A 
BRANCH  12  16
ATOM     16  C   UNL     1      -7.057 -13.327  30.192  1.00  0.00    +0.157 C 
BRANCH  16  17
ATOM     17  N   UNL     1      -6.215 -14.380  30.767  1.00  0.00    -0.309 NA
ATOM     18  H   UNL     1      -6.627 -15.283  30.529  1.00  0.00    +0.123 HD
BRANCH  17  19
ATOM     19  C   UNL     1      -4.833 -14.333  30.274  1.00  0.00    +0.097 C 
BRANCH  19  20
ATOM     20  C   UNL     1      -4.765 -14.179  28.761  1.00  0.00    +0.152 C 
BRANCH  20  21
ATOM     21  S   UNL     1      -4.823 -15.757  27.927  1.00  0.00    +0.148 S 
ATOM     22  O   UNL     1      -4.107 -15.649  26.672  1.00  0.00    -0.229 OA
ATOM     23  O   UNL     1      -6.199 -16.217  27.957  1.00  0.00    -0.229 OA
ATOM     24  C   UNL     1      -3.892 -16.836  28.991  1.00  0.00    +0.158 C 
ENDBRANCH  20  21
ENDBRANCH  19  20
ENDBRANCH  17  19
ENDBRANCH  16  17
ENDBRANCH  12  16
ENDBRANCH   1  11
BRANCH   8  25
ATOM     25  N   UNL     1      -9.835  -7.209  30.931  1.00  0.00    -0.340 N 
ATOM     26  H   UNL     1     -10.117  -6.509  30.252  1.00  0.00    +0.168 HD
BRANCH  25  27
ATOM     27  C   UNL     1      -8.463  -7.093  31.256  1.00  0.00    +0.041 A 
ATOM     28  C   UNL     1      -7.452  -7.652  30.462  1.00  0.00    +0.050 A 
ATOM     29  C   UNL     1      -8.086  -6.277  32.334  1.00  0.00    +0.030 A 
ATOM     30  C   UNL     1      -6.104  -7.463  30.779  1.00  0.00    +0.085 A 
ATOM     31  C   UNL     1      -6.740  -6.083  32.657  1.00  0.00    +0.050 A 
ATOM     32  C   UNL     1      -5.751  -6.700  31.894  1.00  0.00    +0.138 A 
ATOM     33 Cl   UNL     1      -4.905  -8.176  29.761  1.00  0.00    -0.080 Cl
BRANCH  32  34
ATOM     34  O   UNL     1      -4.445  -6.461  32.233  1.00  0.00    -0.487 OA
BRANCH  34  35
ATOM     35  C   UNL     1      -4.017  -7.323  33.297  1.00  0.00    +0.265 C 
BRANCH  35  36
ATOM     36  C   UNL     1      -4.523  -8.725  33.058  1.00  0.00    -0.008 A 
ATOM     37  C   UNL     1      -5.823  -9.089  33.431  1.00  0.00    +0.046 A 
ATOM     38  C   UNL     1      -3.688  -9.691  32.473  1.00  0.00    +0.007 A 
ATOM     39  C   UNL     1      -6.268 -10.390  33.215  1.00  0.00    +0.123 A 
ATOM     40  C   UNL     1      -4.145 -10.994  32.260  1.00  0.00    +0.003 A 
ATOM     41  C   UNL     1      -5.442 -11.344  32.631  1.00  0.00    +0.039 A 
ATOM     42  F   UNL     1      -7.511 -10.729  33.578  1.00  0.00    -0.207 F 
ENDBRANCH  35  36
ENDBRANCH  34  35
ENDBRANCH  32  34
ENDBRANCH  25  27
ENDBRANCH   8  25
TORSDOF 11
ENDMDL
MODEL 8
REMARK VINA RESULT:    -8.567      3.397      7.220
REMARK INTER + INTRA:         -15.759
REMARK INTER:                 -14.036
REMARK INTRA:                  -1.723
REMARK UNBOUND:                -1.683
REMARK SMILES CS(=O)(=O)CCNCc1ccc(-c2ccc3ncnc(Nc4ccc(OCc5cccc(F)c5)c(Cl)c4)c3c2)o1
REMARK SMILES IDX 13 1 14 2 15 3 16 4 17 5 18 6 19 7 20 8 38 9 39 10 12 11
REMARK SMILES IDX 9 12 10 13 40 14 11 15 8 16 7 17 6 19 5 20 2 21 3 22 4 23
REMARK SMILES IDX 1 24 21 25 22 27 37 28 23 29 35 30 24 31 25 32 36 33 26 34
REMARK SMILES IDX 27 35 28 36 34 37 29 38 32 39 30 40 31 41 33 42
REMARK H PARENT 7 18 21 26
ROOT
ATOM      1  C   UNL     1     -10.276 -11.123  31.936  1.00  0.00    +0.018 A 
ATOM      2  C   UNL     1     -11.464 -11.568  32.519  1.00  0.00    +0.014 A 
ATOM      3  C   UNL     1     -12.460 -10.660  32.899  1.00  0.00    +0.030 A 
ATOM      4  C   UNL     1     -12.318  -9.293  32.707  1.00  0.00    +0.076 A 
ATOM      5  N   UNL     1     -13.305  -8.486  33.106  1.00  0.00    -0.236 NA
ATOM      6  C   UNL     1     -13.124  -7.177  32.912  1.00  0.00    +0.224 A 
ATOM      7  N   UNL     1     -12.060  -6.603  32.345  1.00  0.00    -0.219 NA
ATOM      8  C   UNL     1     -11.076  -7.424  31.932  1.00  0.00    +0.141 A 
ATOM      9  C   UNL     1     -11.146  -8.821  32.107  1.00  0.00    +0.044 A 
ATOM     10  C   UNL     1     -10.128  -9.745  31.735  1.00  0.00    +0.026 A 
ENDROOT
BRANCH   1  11
ATOM     11  C   UNL     1      -9.219 -12.055  31.551  1.00  0.00    +0.134 A 
ATOM     12  C   UNL     1      -8.447 -13.758  30.382  1.00  0.00    +0.118 A 
ATOM     13  C   UNL     1      -7.403 -13.324  31.170  1.00  0.00    +0.047 A 
ATOM     14  O   UNL     1      -9.552 -12.995  30.616  1.00  0.00    -0.460 OA
ATOM     15  C   UNL     1      -7.898 -12.229  31.920  1.00  0.00    +0.051 A 
BRANCH  12  16
ATOM     16  C   UNL     1      -8.593 -14.854  29.386  1.00  0.00    +0.157 C 
BRANCH  16  17
ATOM     17  N   UNL     1      -7.564 -14.747  28.347  1.00  0.00    -0.309 NA
ATOM     18  H   UNL     1      -6.746 -14.294  28.753  1.00  0.00    +0.123 HD
BRANCH  17  19
ATOM     19  C   UNL     1      -7.174 -16.052  27.800  1.00  0.00    +0.097 C 
BRANCH  19  20
ATOM     20  C   UNL     1      -5.840 -15.997  27.070  1.00  0.00    +0.152 C 
BRANCH  20  21
ATOM     21  S   UNL     1      -4.497 -15.570  28.166  1.00  0.00    +0.148 S 
ATOM     22  O   UNL     1      -3.340 -16.372  27.821  1.00  0.00    -0.229 OA
ATOM     23  O   UNL     1      -5.019 -15.569  29.519  1.00  0.00    -0.229 OA
ATOM     24  C   UNL     1      -4.128 -13.881  27.751  1.00  0.00    +0.158 C 
ENDBRANCH  20  21
ENDBRANCH  19  20
ENDBRANCH  17  19
ENDBRANCH  16  17
ENDBRANCH  12  16
ENDBRANCH   1  11
BRANCH   8  25
ATOM     25  N   UNL     1      -9.940  -6.870  31.277  1.00  0.00    -0.340 N 
ATOM     26  H   UNL     1     -10.222  -6.004  30.829  1.00  0.00    +0.168 HD
BRANCH  25  27
ATOM     27  C   UNL     1      -8.612  -6.797  31.755  1.00  0.00    +0.041 A 
ATOM     28  C   UNL     1      -8.115  -7.667  32.737  1.00  0.00    +0.050 A 
ATOM     29  C   UNL     1      -7.712  -5.915  31.135  1.00  0.00    +0.030 A 
ATOM     30  C   UNL     1      -6.778  -7.607  33.140  1.00  0.00    +0.085 A 
ATOM     31  C   UNL     1      -6.374  -5.850  31.533  1.00  0.00    +0.050 A 
ATOM     32  C   UNL     1      -5.916  -6.679  32.554  1.00  0.00    +0.138 A 
ATOM     33 Cl   UNL     1      -6.228  -8.708  34.352  1.00  0.00    -0.080 Cl
BRANCH  32  34
ATOM     34  O   UNL     1      -4.591  -6.597  32.893  1.00  0.00    -0.487 OA
BRANCH  34  35
ATOM     35  C   UNL     1      -3.749  -7.035  31.817  1.00  0.00    +0.265 C 
BRANCH  35  36
ATOM     36  C   UNL     1      -4.090  -8.458  31.445  1.00  0.00    -0.008 A 
ATOM     37  C   UNL     1      -3.759  -9.519  32.297  1.00  0.00    +0.046 A 
ATOM     38  C   UNL     1      -4.728  -8.739  30.225  1.00  0.00    +0.007 A 
ATOM     39  C   UNL     1      -4.069 -10.825  31.932  1.00  0.00    +0.123 A 
ATOM     40  C   UNL     1      -5.035 -10.055  29.869  1.00  0.00    +0.003 A 
ATOM     41  C   UNL     1      -4.706 -11.102  30.727  1.00  0.00    +0.039 A 
ATOM     42  F   UNL     1      -3.747 -11.832  32.753  1.00  0.00    -0.207 F 
ENDBRANCH  35  36
ENDBRANCH  34  35
ENDBRANCH  32  34
ENDBRANCH  25  27
ENDBRANCH   8  25
TORSDOF 11
ENDMDL
MODEL 9
REMARK VINA RESULT:    -8.349      3.341      6.906
REMARK INTER + INTRA:         -15.401
REMARK INTER:                 -13.862
REMARK INTRA:                  -1.539
REMARK UNBOUND:                -1.683
REMARK SMILES CS(=O)(=O)CCNCc1ccc(-c2ccc3ncnc(Nc4ccc(OCc5cccc(F)c5)c(Cl)c4)c3c2)o1
REMARK SMILES IDX 13 1 14 2 15 3 16 4 17 5 18 6 19 7 20 8 38 9 39 10 12 11
REMARK SMILES IDX 9 12 10 13 40 14 11 15 8 16 7 17 6 19 5 20 2 21 3 22 4 23
REMARK SMILES IDX 1 24 21 25 22 27 37 28 23 29 35 30 24 31 25 32 36 33 26 34
REMARK SMILES IDX 27 35 28 36 34 37 29 38 32 39 30 40 31 41 33 42
REMARK H PARENT 7 18 21 26
ROOT
ATOM      1  C   UNL     1      -8.111 -13.652  30.222  1.00  0.00    +0.018 A 
ATOM      2  C   UNL     1      -8.057 -15.046  30.279  1.00  0.00    +0.014 A 
ATOM      3  C   UNL     1      -6.946 -15.741  29.786  1.00  0.00    +0.030 A 
ATOM      4  C   UNL     1      -5.856 -15.085  29.234  1.00  0.00    +0.076 A 
ATOM      5  N   UNL     1      -4.837 -15.815  28.773  1.00  0.00    -0.236 NA
ATOM      6  C   UNL     1      -3.811 -15.144  28.241  1.00  0.00    +0.224 A 
ATOM      7  N   UNL     1      -3.704 -13.817  28.140  1.00  0.00    -0.219 NA
ATOM      8  C   UNL     1      -4.728 -13.088  28.620  1.00  0.00    +0.141 A 
ATOM      9  C   UNL     1      -5.874 -13.687  29.182  1.00  0.00    +0.044 A 
ATOM     10  C   UNL     1      -7.011 -12.983  29.670  1.00  0.00    +0.026 A 
ENDROOT
BRANCH   1  11
ATOM     11  C   UNL     1      -9.270 -12.912  30.714  1.00  0.00    +0.134 A 
ATOM     12  C   UNL     1     -10.398 -11.881  32.305  1.00  0.00    +0.118 A 
ATOM     13  C   UNL     1     -11.167 -11.792  31.164  1.00  0.00    +0.047 A 
ATOM     14  O   UNL     1      -9.251 -12.566  32.037  1.00  0.00    -0.460 OA
ATOM     15  C   UNL     1     -10.442 -12.451  30.142  1.00  0.00    +0.051 A 
BRANCH  12  16
ATOM     16  C   UNL     1     -10.582 -11.409  33.704  1.00  0.00    +0.157 C 
BRANCH  16  17
ATOM     17  N   UNL     1     -11.971 -11.596  34.133  1.00  0.00    -0.309 NA
ATOM     18  H   UNL     1     -12.577 -11.113  33.470  1.00  0.00    +0.123 HD
BRANCH  17  19
ATOM     19  C   UNL     1     -12.357 -13.010  34.203  1.00  0.00    +0.097 C 
BRANCH  19  20
ATOM     20  C   UNL     1     -13.460 -13.357  33.213  1.00  0.00    +0.152 C 
BRANCH  20  21
ATOM     21  S   UNL     1     -13.363 -15.056  32.674  1.00  0.00    +0.148 S 
ATOM     22  O   UNL     1     -14.109 -15.198  31.440  1.00  0.00    -0.229 OA
ATOM     23  O   UNL     1     -13.660 -15.896  33.819  1.00  0.00    -0.229 OA
ATOM     24  C   UNL     1     -11.640 -15.286  32.296  1.00  0.00    +0.158 C 
ENDBRANCH  20  21
ENDBRANCH  19  20
ENDBRANCH  17  19
ENDBRANCH  16  17
ENDBRANCH  12  16
ENDBRANCH   1  11
BRANCH   8  25
ATOM     25  N   UNL     1      -4.645 -11.667  28.583  1.00  0.00    -0.340 N 
ATOM     26  H   UNL     1      -5.123 -11.342  27.748  1.00  0.00    +0.168 HD
BRANCH  25  27
ATOM     27  C   UNL     1      -4.802 -10.760  29.656  1.00  0.00    +0.041 A 
ATOM     28  C   UNL     1      -4.895  -9.374  29.463  1.00  0.00    +0.050 A 
ATOM     29  C   UNL     1      -5.007 -11.265  30.950  1.00  0.00    +0.030 A 
ATOM     30  C   UNL     1      -5.113  -8.512  30.542  1.00  0.00    +0.085 A 
ATOM     31  C   UNL     1      -5.225 -10.409  32.032  1.00  0.00    +0.050 A 
ATOM     32  C   UNL     1      -5.251  -9.031  31.831  1.00  0.00    +0.138 A 
ATOM     33 Cl   UNL     1      -5.221  -6.816  30.239  1.00  0.00    -0.080 Cl
BRANCH  32  34
ATOM     34  O   UNL     1      -5.493  -8.234  32.918  1.00  0.00    -0.487 OA
BRANCH  34  35
ATOM     35  C   UNL     1      -6.814  -8.444  33.436  1.00  0.00    +0.265 C 
BRANCH  35  36
ATOM     36  C   UNL     1      -7.834  -7.824  32.511  1.00  0.00    -0.008 A 
ATOM     37  C   UNL     1      -8.732  -8.627  31.796  1.00  0.00    +0.046 A 
ATOM     38  C   UNL     1      -7.883  -6.431  32.341  1.00  0.00    +0.007 A 
ATOM     39  C   UNL     1      -9.656  -8.038  30.938  1.00  0.00    +0.123 A 
ATOM     40  C   UNL     1      -8.816  -5.851  31.478  1.00  0.00    +0.003 A 
ATOM     41  C   UNL     1      -9.707  -6.658  30.775  1.00  0.00    +0.039 A 
ATOM     42  F   UNL     1     -10.509  -8.814  30.257  1.00  0.00    -0.207 F 
ENDBRANCH  35  36
ENDBRANCH  34  35
ENDBRANCH  32  34
ENDBRANCH  25  27
ENDBRANCH   8  25
TORSDOF 11
ENDMDL
