MODEL 1
REMARK VINA RESULT:    -4.820      0.000      0.000
REMARK INTER + INTRA:         -11.427
REMARK INTER:                  -7.920
REMARK INTRA:                  -3.507
REMARK UNBOUND:                -3.507
REMARK SMILES CS(=O)(=O)CCNCc1ccc(-c2ccc3ncnc(Nc4ccc(OCc5cccc(F)c5)c(Cl)c4)c3c2)o1
REMARK SMILES IDX 13 1 14 2 15 3 16 4 17 5 18 6 19 7 20 8 38 9 39 10 12 11
REMARK SMILES IDX 9 12 10 13 40 14 11 15 8 16 7 17 6 19 5 20 2 21 3 22 4 23
REMARK SMILES IDX 1 24 21 25 22 27 37 28 23 29 35 30 24 31 25 32 36 33 26 34
REMARK SMILES IDX 27 35 28 36 34 37 29 38 32 39 30 40 31 41 33 42
REMARK H PARENT 7 18 21 26
ROOT
ATOM      1  C   UNL     1      18.022  32.482   9.007  1.00  0.00    +0.018 A 
ATOM      2  C   UNL     1      17.979  32.967   7.699  1.00  0.00    +0.014 A 
ATOM      3  C   UNL     1      17.727  34.321   7.445  1.00  0.00    +0.030 A 
ATOM      4  C   UNL     1      17.519  35.234   8.469  1.00  0.00    +0.076 A 
ATOM      5  N   UNL     1      17.270  36.506   8.149  1.00  0.00    -0.236 NA
ATOM      6  C   UNL     1      17.067  37.350   9.165  1.00  0.00    +0.224 A 
ATOM      7  N   UNL     1      17.103  37.044  10.464  1.00  0.00    -0.219 NA
ATOM      8  C   UNL     1      17.368  35.763  10.778  1.00  0.00    +0.141 A 
ATOM      9  C   UNL     1      17.576  34.778   9.791  1.00  0.00    +0.044 A 
ATOM     10  C   UNL     1      17.818  33.399  10.046  1.00  0.00    +0.026 A 
ENDROOT
BRANCH   1  11
ATOM     11  C   UNL     1      18.266  31.070   9.290  1.00  0.00    +0.134 A 
ATOM     12  C   UNL     1      18.545  29.375  10.674  1.00  0.00    +0.118 A 
ATOM     13  C   UNL     1      18.646  28.857   9.401  1.00  0.00    +0.047 A 
ATOM     14  O   UNL     1      18.322  30.718  10.611  1.00  0.00    -0.460 OA
ATOM     15  C   UNL     1      18.464  29.944   8.512  1.00  0.00    +0.051 A 
BRANCH  12  16
ATOM     16  C   UNL     1      18.643  28.779  12.034  1.00  0.00    +0.157 C 
BRANCH  16  17
ATOM     17  N   UNL     1      18.437  27.329  11.978  1.00  0.00    -0.309 NA
ATOM     18  H   UNL     1      19.351  26.877  11.962  1.00  0.00    +0.123 HD
BRANCH  17  19
ATOM     19  C   UNL     1      17.666  26.823  13.120  1.00  0.00    +0.097 C 
BRANCH  19  20
ATOM     20  C   UNL     1      17.172  25.400  12.897  1.00  0.00    +0.152 C 
BRANCH  20  21
ATOM     21  S   UNL     1      16.752  25.099  11.188  1.00  0.00    +0.148 S 
ATOM     22  O   UNL     1      17.963  24.779  10.459  1.00  0.00    -0.229 OA
ATOM     23  O   UNL     1      15.890  26.181  10.752  1.00  0.00    -0.229 OA
ATOM     24  C   UNL     1      15.752  23.630  11.248  1.00  0.00    +0.158 C 
ENDBRANCH  20  21
ENDBRANCH  19  20
ENDBRANCH  17  19
ENDBRANCH  16  17
ENDBRANCH  12  16
ENDBRANCH   1  11
BRANCH   8  25
ATOM     25  N   UNL     1      17.466  35.390  12.149  1.00  0.00    -0.340 N 
ATOM     26  H   UNL     1      17.647  36.228  12.694  1.00  0.00    +0.168 HD
BRANCH  25  27
ATOM     27  C   UNL     1      16.658  34.474  12.860  1.00  0.00    +0.041 A 
ATOM     28  C   UNL     1      15.290  34.315  12.599  1.00  0.00    +0.050 A 
ATOM     29  C   UNL     1      17.267  33.592  13.767  1.00  0.00    +0.030 A 
ATOM     30  C   UNL     1      14.536  33.354  13.278  1.00  0.00    +0.085 A 
ATOM     31  C   UNL     1      16.519  32.628  14.449  1.00  0.00    +0.050 A 
ATOM     32  C   UNL     1      15.148  32.529  14.224  1.00  0.00    +0.138 A 
ATOM     33 Cl   UNL     1      12.855  33.207  12.910  1.00  0.00    -0.080 Cl
BRANCH  32  34
ATOM     34  O   UNL     1      14.461  31.554  14.897  1.00  0.00    -0.487 OA
BRANCH  34  35
ATOM     35  C   UNL     1      14.987  30.251  14.607  1.00  0.00    +0.265 C 
BRANCH  35  36
ATOM     36  C   UNL     1      14.399  29.736  13.315  1.00  0.00    -0.008 A 
ATOM     37  C   UNL     1      15.150  29.750  12.132  1.00  0.00    +0.046 A 
ATOM     38  C   UNL     1      13.081  29.252  13.277  1.00  0.00    +0.007 A 
ATOM     39  C   UNL     1      14.588  29.284  10.948  1.00  0.00    +0.123 A 
ATOM     40  C   UNL     1      12.527  28.785  12.083  1.00  0.00    +0.003 A 
ATOM     41  C   UNL     1      13.285  28.800  10.914  1.00  0.00    +0.039 A 
ATOM     42  F   UNL     1      15.313  29.303   9.822  1.00  0.00    -0.207 F 
ENDBRANCH  35  36
ENDBRANCH  34  35
ENDBRANCH  32  34
ENDBRANCH  25  27
ENDBRANCH   8  25
TORSDOF 11
ENDMDL
MODEL 2
REMARK VINA RESULT:    -4.607      3.336      5.609
REMARK INTER + INTRA:         -11.077
REMARK INTER:                  -8.979
REMARK INTRA:                  -2.098
REMARK UNBOUND:                -3.507
REMARK SMILES CS(=O)(=O)CCNCc1ccc(-c2ccc3ncnc(Nc4ccc(OCc5cccc(F)c5)c(Cl)c4)c3c2)o1
REMARK SMILES IDX 13 1 14 2 15 3 16 4 17 5 18 6 19 7 20 8 38 9 39 10 12 11
REMARK SMILES IDX 9 12 10 13 40 14 11 15 8 16 7 17 6 19 5 20 2 21 3 22 4 23
REMARK SMILES IDX 1 24 21 25 22 27 37 28 23 29 35 30 24 31 25 32 36 33 26 34
REMARK SMILES IDX 27 35 28 36 34 37 29 38 32 39 30 40 31 41 33 42
REMARK H PARENT 7 18 21 26
ROOT
ATOM      1  C   UNL     1      13.215  32.449  11.114  1.00  0.00    +0.018 A 
ATOM      2  C   UNL     1      12.192  32.881  10.268  1.00  0.00    +0.014 A 
ATOM      3  C   UNL     1      11.061  33.527  10.783  1.00  0.00    +0.030 A 
ATOM      4  C   UNL     1      10.911  33.774  12.140  1.00  0.00    +0.076 A 
ATOM      5  N   UNL     1       9.800  34.383  12.560  1.00  0.00    -0.236 NA
ATOM      6  C   UNL     1       9.691  34.593  13.875  1.00  0.00    +0.224 A 
ATOM      7  N   UNL     1      10.593  34.264  14.803  1.00  0.00    -0.219 NA
ATOM      8  C   UNL     1      11.716  33.663  14.371  1.00  0.00    +0.141 A 
ATOM      9  C   UNL     1      11.931  33.369  13.009  1.00  0.00    +0.044 A 
ATOM     10  C   UNL     1      13.072  32.699  12.485  1.00  0.00    +0.026 A 
ENDROOT
BRANCH   1  11
ATOM     11  C   UNL     1      14.392  31.756  10.596  1.00  0.00    +0.134 A 
ATOM     12  C   UNL     1      15.587  29.937  10.235  1.00  0.00    +0.118 A 
ATOM     13  C   UNL     1      16.304  30.985   9.698  1.00  0.00    +0.047 A 
ATOM     14  O   UNL     1      14.430  30.402  10.788  1.00  0.00    -0.460 OA
ATOM     15  C   UNL     1      15.535  32.152   9.927  1.00  0.00    +0.051 A 
BRANCH  12  16
ATOM     16  C   UNL     1      15.830  28.473  10.334  1.00  0.00    +0.157 C 
BRANCH  16  17
ATOM     17  N   UNL     1      14.645  27.787  10.858  1.00  0.00    -0.309 NA
ATOM     18  H   UNL     1      14.228  27.247  10.100  1.00  0.00    +0.123 HD
BRANCH  17  19
ATOM     19  C   UNL     1      14.959  26.890  11.977  1.00  0.00    +0.097 C 
BRANCH  19  20
ATOM     20  C   UNL     1      16.340  26.265  11.846  1.00  0.00    +0.152 C 
BRANCH  20  21
ATOM     21  S   UNL     1      16.294  24.726  10.944  1.00  0.00    +0.148 S 
ATOM     22  O   UNL     1      17.459  24.652  10.085  1.00  0.00    -0.229 OA
ATOM     23  O   UNL     1      14.960  24.580  10.394  1.00  0.00    -0.229 OA
ATOM     24  C   UNL     1      16.473  23.486  12.206  1.00  0.00    +0.158 C 
ENDBRANCH  20  21
ENDBRANCH  19  20
ENDBRANCH  17  19
ENDBRANCH  16  17
ENDBRANCH  12  16
ENDBRANCH   1  11
BRANCH   8  25
ATOM     25  N   UNL     1      12.733  33.334  15.312  1.00  0.00    -0.340 N 
ATOM     26  H   UNL     1      12.571  32.386  15.637  1.00  0.00    +0.168 HD
BRANCH  25  27
ATOM     27  C   UNL     1      14.114  33.628  15.236  1.00  0.00    +0.041 A 
ATOM     28  C   UNL     1      15.101  32.634  15.308  1.00  0.00    +0.050 A 
ATOM     29  C   UNL     1      14.515  34.942  14.944  1.00  0.00    +0.030 A 
ATOM     30  C   UNL     1      16.454  32.954  15.166  1.00  0.00    +0.085 A 
ATOM     31  C   UNL     1      15.866  35.268  14.801  1.00  0.00    +0.050 A 
ATOM     32  C   UNL     1      16.836  34.278  14.939  1.00  0.00    +0.138 A 
ATOM     33 Cl   UNL     1      17.620  31.684  15.261  1.00  0.00    -0.080 Cl
BRANCH  32  34
ATOM     34  O   UNL     1      18.145  34.641  14.766  1.00  0.00    -0.487 OA
BRANCH  34  35
ATOM     35  C   UNL     1      18.658  34.161  13.514  1.00  0.00    +0.265 C 
BRANCH  35  36
ATOM     36  C   UNL     1      18.285  35.116  12.406  1.00  0.00    -0.008 A 
ATOM     37  C   UNL     1      17.706  34.645  11.221  1.00  0.00    +0.046 A 
ATOM     38  C   UNL     1      18.532  36.492  12.542  1.00  0.00    +0.007 A 
ATOM     39  C   UNL     1      17.381  35.538  10.205  1.00  0.00    +0.123 A 
ATOM     40  C   UNL     1      18.200  37.380  11.516  1.00  0.00    +0.003 A 
ATOM     41  C   UNL     1      17.620  36.901  10.343  1.00  0.00    +0.039 A 
ATOM     42  F   UNL     1      16.830  35.078   9.075  1.00  0.00    -0.207 F 
ENDBRANCH  35  36
ENDBRANCH  34  35
ENDBRANCH  32  34
ENDBRANCH  25  27
ENDBRANCH   8  25
TORSDOF 11
ENDMDL
MODEL 3
REMARK VINA RESULT:    -4.595      3.821      6.271
REMARK INTER + INTRA:         -11.057
REMARK INTER:                  -9.186
REMARK INTRA:                  -1.871
REMARK UNBOUND:                -3.507
REMARK SMILES CS(=O)(=O)CCNCc1ccc(-c2ccc3ncnc(Nc4ccc(OCc5cccc(F)c5)c(Cl)c4)c3c2)o1
REMARK SMILES IDX 13 1 14 2 15 3 16 4 17 5 18 6 19 7 20 8 38 9 39 10 12 11
REMARK SMILES IDX 9 12 10 13 40 14 11 15 8 16 7 17 6 19 5 20 2 21 3 22 4 23
REMARK SMILES IDX 1 24 21 25 22 27 37 28 23 29 35 30 24 31 25 32 36 33 26 34
REMARK SMILES IDX 27 35 28 36 34 37 29 38 32 39 30 40 31 41 33 42
REMARK H PARENT 7 18 21 26
ROOT
ATOM      1  C   UNL     1      18.306  26.826  13.157  1.00  0.00    +0.018 A 
ATOM      2  C   UNL     1      18.742  26.840  14.483  1.00  0.00    +0.014 A 
ATOM      3  C   UNL     1      18.885  28.047  15.178  1.00  0.00    +0.030 A 
ATOM      4  C   UNL     1      18.595  29.270  14.591  1.00  0.00    +0.076 A 
ATOM      5  N   UNL     1      18.767  30.381  15.311  1.00  0.00    -0.236 NA
ATOM      6  C   UNL     1      18.485  31.538  14.706  1.00  0.00    +0.224 A 
ATOM      7  N   UNL     1      18.035  31.685  13.457  1.00  0.00    -0.219 NA
ATOM      8  C   UNL     1      17.850  30.561  12.742  1.00  0.00    +0.141 A 
ATOM      9  C   UNL     1      18.137  29.284  13.269  1.00  0.00    +0.044 A 
ATOM     10  C   UNL     1      18.006  28.057  12.560  1.00  0.00    +0.026 A 
ENDROOT
BRANCH   1  11
ATOM     11  C   UNL     1      18.169  25.577  12.411  1.00  0.00    +0.134 A 
ATOM     12  C   UNL     1      17.745  23.417  12.280  1.00  0.00    +0.118 A 
ATOM     13  C   UNL     1      18.033  23.834  10.998  1.00  0.00    +0.047 A 
ATOM     14  O   UNL     1      17.834  24.470  13.141  1.00  0.00    -0.460 OA
ATOM     15  C   UNL     1      18.303  25.221  11.082  1.00  0.00    +0.051 A 
BRANCH  12  16
ATOM     16  C   UNL     1      17.388  22.100  12.874  1.00  0.00    +0.157 C 
BRANCH  16  17
ATOM     17  N   UNL     1      16.980  22.259  14.273  1.00  0.00    -0.309 NA
ATOM     18  H   UNL     1      16.637  23.211  14.399  1.00  0.00    +0.123 HD
BRANCH  17  19
ATOM     19  C   UNL     1      15.933  21.309  14.669  1.00  0.00    +0.097 C 
BRANCH  19  20
ATOM     20  C   UNL     1      15.019  20.942  13.509  1.00  0.00    +0.152 C 
BRANCH  20  21
ATOM     21  S   UNL     1      13.692  22.119  13.306  1.00  0.00    +0.148 S 
ATOM     22  O   UNL     1      14.103  23.389  13.871  1.00  0.00    -0.229 OA
ATOM     23  O   UNL     1      12.466  21.478  13.743  1.00  0.00    -0.229 OA
ATOM     24  C   UNL     1      13.570  22.325  11.543  1.00  0.00    +0.158 C 
ENDBRANCH  20  21
ENDBRANCH  19  20
ENDBRANCH  17  19
ENDBRANCH  16  17
ENDBRANCH  12  16
ENDBRANCH   1  11
BRANCH   8  25
ATOM     25  N   UNL     1      17.326  30.656  11.422  1.00  0.00    -0.340 N 
ATOM     26  H   UNL     1      17.780  29.953  10.848  1.00  0.00    +0.168 HD
BRANCH  25  27
ATOM     27  C   UNL     1      15.980  30.851  11.034  1.00  0.00    +0.041 A 
ATOM     28  C   UNL     1      14.935  30.045  11.507  1.00  0.00    +0.050 A 
ATOM     29  C   UNL     1      15.653  31.973  10.255  1.00  0.00    +0.030 A 
ATOM     30  C   UNL     1      13.609  30.308  11.152  1.00  0.00    +0.085 A 
ATOM     31  C   UNL     1      14.329  32.241   9.896  1.00  0.00    +0.050 A 
ATOM     32  C   UNL     1      13.311  31.391  10.323  1.00  0.00    +0.138 A 
ATOM     33 Cl   UNL     1      12.367  29.279  11.770  1.00  0.00    -0.080 Cl
BRANCH  32  34
ATOM     34  O   UNL     1      12.027  31.708   9.968  1.00  0.00    -0.487 OA
BRANCH  34  35
ATOM     35  C   UNL     1      11.814  33.127   9.991  1.00  0.00    +0.265 C 
BRANCH  35  36
ATOM     36  C   UNL     1      11.338  33.553  11.359  1.00  0.00    -0.008 A 
ATOM     37  C   UNL     1      10.039  34.045  11.542  1.00  0.00    +0.046 A 
ATOM     38  C   UNL     1      12.199  33.478  12.466  1.00  0.00    +0.007 A 
ATOM     39  C   UNL     1       9.621  34.446  12.807  1.00  0.00    +0.123 A 
ATOM     40  C   UNL     1      11.768  33.881  13.732  1.00  0.00    +0.003 A 
ATOM     41  C   UNL     1      10.473  34.365  13.903  1.00  0.00    +0.039 A 
ATOM     42  F   UNL     1       8.379  34.917  12.972  1.00  0.00    -0.207 F 
ENDBRANCH  35  36
ENDBRANCH  34  35
ENDBRANCH  32  34
ENDBRANCH  25  27
ENDBRANCH   8  25
TORSDOF 11
ENDMDL
MODEL 4
REMARK VINA RESULT:    -4.308      4.468      5.853
REMARK INTER + INTRA:         -10.586
REMARK INTER:                  -9.478
REMARK INTRA:                  -1.108
REMARK UNBOUND:                -3.507
REMARK SMILES CS(=O)(=O)CCNCc1ccc(-c2ccc3ncnc(Nc4ccc(OCc5cccc(F)c5)c(Cl)c4)c3c2)o1
REMARK SMILES IDX 13 1 14 2 15 3 16 4 17 5 18 6 19 7 20 8 38 9 39 10 12 11
REMARK SMILES IDX 9 12 10 13 40 14 11 15 8 16 7 17 6 19 5 20 2 21 3 22 4 23
REMARK SMILES IDX 1 24 21 25 22 27 37 28 23 29 35 30 24 31 25 32 36 33 26 34
REMARK SMILES IDX 27 35 28 36 34 37 29 38 32 39 30 40 31 41 33 42
REMARK H PARENT 7 18 21 26
ROOT
ATOM      1  C   UNL     1      16.908  28.807  11.905  1.00  0.00    +0.018 A 
ATOM      2  C   UNL     1      18.237  29.138  11.635  1.00  0.00    +0.014 A 
ATOM      3  C   UNL     1      18.552  30.239  10.828  1.00  0.00    +0.030 A 
ATOM      4  C   UNL     1      17.570  31.047  10.275  1.00  0.00    +0.076 A 
ATOM      5  N   UNL     1      17.946  32.072   9.505  1.00  0.00    -0.236 NA
ATOM      6  C   UNL     1      16.969  32.820   8.984  1.00  0.00    +0.224 A 
ATOM      7  N   UNL     1      15.658  32.647   9.172  1.00  0.00    -0.219 NA
ATOM      8  C   UNL     1      15.288  31.621   9.960  1.00  0.00    +0.141 A 
ATOM      9  C   UNL     1      16.230  30.750  10.545  1.00  0.00    +0.044 A 
ATOM     10  C   UNL     1      15.912  29.622  11.352  1.00  0.00    +0.026 A 
ENDROOT
BRANCH   1  11
ATOM     11  C   UNL     1      16.562  27.651  12.728  1.00  0.00    +0.134 A 
ATOM     12  C   UNL     1      15.574  25.704  13.044  1.00  0.00    +0.118 A 
ATOM     13  C   UNL     1      16.205  26.016  14.229  1.00  0.00    +0.047 A 
ATOM     14  O   UNL     1      15.782  26.697  12.133  1.00  0.00    -0.460 OA
ATOM     15  C   UNL     1      16.841  27.265  14.025  1.00  0.00    +0.051 A 
BRANCH  12  16
ATOM     16  C   UNL     1      14.739  24.556  12.598  1.00  0.00    +0.157 C 
BRANCH  16  17
ATOM     17  N   UNL     1      15.562  23.353  12.437  1.00  0.00    -0.309 NA
ATOM     18  H   UNL     1      15.547  23.086  11.452  1.00  0.00    +0.123 HD
BRANCH  17  19
ATOM     19  C   UNL     1      16.951  23.555  12.863  1.00  0.00    +0.097 C 
BRANCH  19  20
ATOM     20  C   UNL     1      17.697  22.241  13.044  1.00  0.00    +0.152 C 
BRANCH  20  21
ATOM     21  S   UNL     1      17.037  21.279  14.396  1.00  0.00    +0.148 S 
ATOM     22  O   UNL     1      16.417  20.084  13.860  1.00  0.00    -0.229 OA
ATOM     23  O   UNL     1      16.289  22.181  15.251  1.00  0.00    -0.229 OA
ATOM     24  C   UNL     1      18.480  20.778  15.306  1.00  0.00    +0.158 C 
ENDBRANCH  20  21
ENDBRANCH  19  20
ENDBRANCH  17  19
ENDBRANCH  16  17
ENDBRANCH  12  16
ENDBRANCH   1  11
BRANCH   8  25
ATOM     25  N   UNL     1      13.905  31.420  10.233  1.00  0.00    -0.340 N 
ATOM     26  H   UNL     1      13.688  30.442  10.068  1.00  0.00    +0.168 HD
BRANCH  25  27
ATOM     27  C   UNL     1      13.146  31.946  11.303  1.00  0.00    +0.041 A 
ATOM     28  C   UNL     1      13.372  31.583  12.638  1.00  0.00    +0.050 A 
ATOM     29  C   UNL     1      12.222  32.971  11.042  1.00  0.00    +0.030 A 
ATOM     30  C   UNL     1      12.644  32.172  13.676  1.00  0.00    +0.085 A 
ATOM     31  C   UNL     1      11.492  33.564  12.075  1.00  0.00    +0.050 A 
ATOM     32  C   UNL     1      11.684  33.144  13.389  1.00  0.00    +0.138 A 
ATOM     33 Cl   UNL     1      12.972  31.682  15.299  1.00  0.00    -0.080 Cl
BRANCH  32  34
ATOM     34  O   UNL     1      10.964  33.772  14.370  1.00  0.00    -0.487 OA
BRANCH  34  35
ATOM     35  C   UNL     1      10.225  34.884  13.845  1.00  0.00    +0.265 C 
BRANCH  35  36
ATOM     36  C   UNL     1       8.744  34.621  13.967  1.00  0.00    -0.008 A 
ATOM     37  C   UNL     1       7.998  34.207  12.856  1.00  0.00    +0.046 A 
ATOM     38  C   UNL     1       8.089  34.805  15.195  1.00  0.00    +0.007 A 
ATOM     39  C   UNL     1       6.631  33.982  12.983  1.00  0.00    +0.123 A 
ATOM     40  C   UNL     1       6.716  34.575  15.312  1.00  0.00    +0.003 A 
ATOM     41  C   UNL     1       5.984  34.159  14.202  1.00  0.00    +0.039 A 
ATOM     42  F   UNL     1       5.925  33.589  11.915  1.00  0.00    -0.207 F 
ENDBRANCH  35  36
ENDBRANCH  34  35
ENDBRANCH  32  34
ENDBRANCH  25  27
ENDBRANCH   8  25
TORSDOF 11
ENDMDL
MODEL 5
REMARK VINA RESULT:    -4.114      3.675      5.891
REMARK INTER + INTRA:         -10.267
REMARK INTER:                  -8.549
REMARK INTRA:                  -1.719
REMARK UNBOUND:                -3.507
REMARK SMILES CS(=O)(=O)CCNCc1ccc(-c2ccc3ncnc(Nc4ccc(OCc5cccc(F)c5)c(Cl)c4)c3c2)o1
REMARK SMILES IDX 13 1 14 2 15 3 16 4 17 5 18 6 19 7 20 8 38 9 39 10 12 11
REMARK SMILES IDX 9 12 10 13 40 14 11 15 8 16 7 17 6 19 5 20 2 21 3 22 4 23
REMARK SMILES IDX 1 24 21 25 22 27 37 28 23 29 35 30 24 31 25 32 36 33 26 34
REMARK SMILES IDX 27 35 28 36 34 37 29 38 32 39 30 40 31 41 33 42
REMARK H PARENT 7 18 21 26
ROOT
ATOM      1  C   UNL     1      12.834  32.723  11.101  1.00  0.00    +0.018 A 
ATOM      2  C   UNL     1      11.759  33.113  10.301  1.00  0.00    +0.014 A 
ATOM      3  C   UNL     1      10.631  33.723  10.864  1.00  0.00    +0.030 A 
ATOM      4  C   UNL     1      10.535  33.972  12.226  1.00  0.00    +0.076 A 
ATOM      5  N   UNL     1       9.423  34.545  12.693  1.00  0.00    -0.236 NA
ATOM      6  C   UNL     1       9.367  34.759  14.011  1.00  0.00    +0.224 A 
ATOM      7  N   UNL     1      10.322  34.468  14.898  1.00  0.00    -0.219 NA
ATOM      8  C   UNL     1      11.445  33.904  14.418  1.00  0.00    +0.141 A 
ATOM      9  C   UNL     1      11.607  33.609  13.048  1.00  0.00    +0.044 A 
ATOM     10  C   UNL     1      12.746  32.976  12.476  1.00  0.00    +0.026 A 
ENDROOT
BRANCH   1  11
ATOM     11  C   UNL     1      14.010  32.069  10.533  1.00  0.00    +0.134 A 
ATOM     12  C   UNL     1      15.086  30.297   9.776  1.00  0.00    +0.118 A 
ATOM     13  C   UNL     1      15.958  31.359   9.661  1.00  0.00    +0.047 A 
ATOM     14  O   UNL     1      13.906  30.723  10.312  1.00  0.00    -0.460 OA
ATOM     15  C   UNL     1      15.266  32.497  10.144  1.00  0.00    +0.051 A 
BRANCH  12  16
ATOM     16  C   UNL     1      15.188  28.848   9.457  1.00  0.00    +0.157 C 
BRANCH  16  17
ATOM     17  N   UNL     1      14.358  28.059  10.372  1.00  0.00    -0.309 NA
ATOM     18  H   UNL     1      13.570  27.683   9.845  1.00  0.00    +0.123 HD
BRANCH  17  19
ATOM     19  C   UNL     1      15.096  26.953  10.995  1.00  0.00    +0.097 C 
BRANCH  19  20
ATOM     20  C   UNL     1      15.189  27.100  12.507  1.00  0.00    +0.152 C 
BRANCH  20  21
ATOM     21  S   UNL     1      14.141  28.411  13.116  1.00  0.00    +0.148 S 
ATOM     22  O   UNL     1      12.813  28.244  12.559  1.00  0.00    -0.229 OA
ATOM     23  O   UNL     1      14.860  29.659  12.951  1.00  0.00    -0.229 OA
ATOM     24  C   UNL     1      14.038  28.098  14.864  1.00  0.00    +0.158 C 
ENDBRANCH  20  21
ENDBRANCH  19  20
ENDBRANCH  17  19
ENDBRANCH  16  17
ENDBRANCH  12  16
ENDBRANCH   1  11
BRANCH   8  25
ATOM     25  N   UNL     1      12.514  33.617  15.312  1.00  0.00    -0.340 N 
ATOM     26  H   UNL     1      12.259  32.802  15.862  1.00  0.00    +0.168 HD
BRANCH  25  27
ATOM     27  C   UNL     1      13.902  33.648  15.045  1.00  0.00    +0.041 A 
ATOM     28  C   UNL     1      14.716  32.511  15.149  1.00  0.00    +0.050 A 
ATOM     29  C   UNL     1      14.469  34.823  14.525  1.00  0.00    +0.030 A 
ATOM     30  C   UNL     1      16.072  32.564  14.816  1.00  0.00    +0.085 A 
ATOM     31  C   UNL     1      15.824  34.884  14.189  1.00  0.00    +0.050 A 
ATOM     32  C   UNL     1      16.630  33.761  14.361  1.00  0.00    +0.138 A 
ATOM     33 Cl   UNL     1      17.019  31.128  14.964  1.00  0.00    -0.080 Cl
BRANCH  32  34
ATOM     34  O   UNL     1      17.946  33.860  13.995  1.00  0.00    -0.487 OA
BRANCH  34  35
ATOM     35  C   UNL     1      18.235  33.035  12.857  1.00  0.00    +0.265 C 
BRANCH  35  36
ATOM     36  C   UNL     1      18.238  33.874  11.602  1.00  0.00    -0.008 A 
ATOM     37  C   UNL     1      17.582  35.111  11.568  1.00  0.00    +0.046 A 
ATOM     38  C   UNL     1      18.885  33.415  10.443  1.00  0.00    +0.007 A 
ATOM     39  C   UNL     1      17.585  35.865  10.398  1.00  0.00    +0.123 A 
ATOM     40  C   UNL     1      18.882  34.181   9.275  1.00  0.00    +0.003 A 
ATOM     41  C   UNL     1      18.231  35.412   9.253  1.00  0.00    +0.039 A 
ATOM     42  F   UNL     1      16.953  37.046  10.374  1.00  0.00    -0.207 F 
ENDBRANCH  35  36
ENDBRANCH  34  35
ENDBRANCH  32  34
ENDBRANCH  25  27
ENDBRANCH   8  25
TORSDOF 11
ENDMDL
MODEL 6
REMARK VINA RESULT:    -4.053      3.559      5.957
REMARK INTER + INTRA:         -10.166
REMARK INTER:                  -8.238
REMARK INTRA:                  -1.928
REMARK UNBOUND:                -3.507
REMARK SMILES CS(=O)(=O)CCNCc1ccc(-c2ccc3ncnc(Nc4ccc(OCc5cccc(F)c5)c(Cl)c4)c3c2)o1
REMARK SMILES IDX 13 1 14 2 15 3 16 4 17 5 18 6 19 7 20 8 38 9 39 10 12 11
REMARK SMILES IDX 9 12 10 13 40 14 11 15 8 16 7 17 6 19 5 20 2 21 3 22 4 23
REMARK SMILES IDX 1 24 21 25 22 27 37 28 23 29 35 30 24 31 25 32 36 33 26 34
REMARK SMILES IDX 27 35 28 36 34 37 29 38 32 39 30 40 31 41 33 42
REMARK H PARENT 7 18 21 26
ROOT
ATOM      1  C   UNL     1      17.886  25.729  12.288  1.00  0.00    +0.018 A 
ATOM      2  C   UNL     1      18.062  25.346  10.957  1.00  0.00    +0.014 A 
ATOM      3  C   UNL     1      18.083  26.300   9.933  1.00  0.00    +0.030 A 
ATOM      4  C   UNL     1      17.940  27.656  10.191  1.00  0.00    +0.076 A 
ATOM      5  N   UNL     1      17.957  28.507   9.163  1.00  0.00    -0.236 NA
ATOM      6  C   UNL     1      17.807  29.803   9.454  1.00  0.00    +0.224 A 
ATOM      7  N   UNL     1      17.657  30.324  10.674  1.00  0.00    -0.219 NA
ATOM      8  C   UNL     1      17.656  29.462  11.706  1.00  0.00    +0.141 A 
ATOM      9  C   UNL     1      17.782  28.070  11.519  1.00  0.00    +0.044 A 
ATOM     10  C   UNL     1      17.747  27.097  12.556  1.00  0.00    +0.026 A 
ENDROOT
BRANCH   1  11
ATOM     11  C   UNL     1      17.843  24.745  13.367  1.00  0.00    +0.134 A 
ATOM     12  C   UNL     1      16.764  23.395  14.738  1.00  0.00    +0.118 A 
ATOM     13  C   UNL     1      18.104  23.252  15.028  1.00  0.00    +0.047 A 
ATOM     14  O   UNL     1      16.602  24.306  13.736  1.00  0.00    -0.460 OA
ATOM     15  C   UNL     1      18.797  24.117  14.146  1.00  0.00    +0.051 A 
BRANCH  12  16
ATOM     16  C   UNL     1      15.524  22.788  15.293  1.00  0.00    +0.157 C 
BRANCH  16  17
ATOM     17  N   UNL     1      15.277  21.475  14.687  1.00  0.00    -0.309 NA
ATOM     18  H   UNL     1      15.507  20.758  15.376  1.00  0.00    +0.123 HD
BRANCH  17  19
ATOM     19  C   UNL     1      13.885  21.305  14.255  1.00  0.00    +0.097 C 
BRANCH  19  20
ATOM     20  C   UNL     1      13.453  22.376  13.264  1.00  0.00    +0.152 C 
BRANCH  20  21
ATOM     21  S   UNL     1      14.239  22.171  11.674  1.00  0.00    +0.148 S 
ATOM     22  O   UNL     1      13.327  21.474  10.788  1.00  0.00    -0.229 OA
ATOM     23  O   UNL     1      15.576  21.660  11.908  1.00  0.00    -0.229 OA
ATOM     24  C   UNL     1      14.417  23.834  11.068  1.00  0.00    +0.158 C 
ENDBRANCH  20  21
ENDBRANCH  19  20
ENDBRANCH  17  19
ENDBRANCH  16  17
ENDBRANCH  12  16
ENDBRANCH   1  11
BRANCH   8  25
ATOM     25  N   UNL     1      17.548  29.968  13.033  1.00  0.00    -0.340 N 
ATOM     26  H   UNL     1      18.485  30.089  13.404  1.00  0.00    +0.168 HD
BRANCH  25  27
ATOM     27  C   UNL     1      16.667  30.963  13.514  1.00  0.00    +0.041 A 
ATOM     28  C   UNL     1      16.837  32.325  13.223  1.00  0.00    +0.050 A 
ATOM     29  C   UNL     1      15.503  30.571  14.194  1.00  0.00    +0.030 A 
ATOM     30  C   UNL     1      15.911  33.274  13.663  1.00  0.00    +0.085 A 
ATOM     31  C   UNL     1      14.572  31.515  14.636  1.00  0.00    +0.050 A 
ATOM     32  C   UNL     1      14.792  32.869  14.393  1.00  0.00    +0.138 A 
ATOM     33 Cl   UNL     1      16.176  34.934  13.270  1.00  0.00    -0.080 Cl
BRANCH  32  34
ATOM     34  O   UNL     1      13.840  33.755  14.824  1.00  0.00    -0.487 OA
BRANCH  34  35
ATOM     35  C   UNL     1      12.548  33.136  14.902  1.00  0.00    +0.265 C 
BRANCH  35  36
ATOM     36  C   UNL     1      11.721  33.520  13.699  1.00  0.00    -0.008 A 
ATOM     37  C   UNL     1      12.113  33.138  12.410  1.00  0.00    +0.046 A 
ATOM     38  C   UNL     1      10.553  34.285  13.855  1.00  0.00    +0.007 A 
ATOM     39  C   UNL     1      11.345  33.512  11.312  1.00  0.00    +0.123 A 
ATOM     40  C   UNL     1       9.789  34.654  12.746  1.00  0.00    +0.003 A 
ATOM     41  C   UNL     1      10.186  34.264  11.468  1.00  0.00    +0.039 A 
ATOM     42  F   UNL     1      11.729  33.143  10.083  1.00  0.00    -0.207 F 
ENDBRANCH  35  36
ENDBRANCH  34  35
ENDBRANCH  32  34
ENDBRANCH  25  27
ENDBRANCH   8  25
TORSDOF 11
ENDMDL
MODEL 7
REMARK VINA RESULT:    -2.480      3.317      4.360
REMARK INTER + INTRA:          -7.582
REMARK INTER:                  -5.594
REMARK INTRA:                  -1.988
REMARK UNBOUND:                -3.507
REMARK SMILES CS(=O)(=O)CCNCc1ccc(-c2ccc3ncnc(Nc4ccc(OCc5cccc(F)c5)c(Cl)c4)c3c2)o1
REMARK SMILES IDX 13 1 14 2 15 3 16 4 17 5 18 6 19 7 20 8 38 9 39 10 12 11
REMARK SMILES IDX 9 12 10 13 40 14 11 15 8 16 7 17 6 19 5 20 2 21 3 22 4 23
REMARK SMILES IDX 1 24 21 25 22 27 37 28 23 29 35 30 24 31 25 32 36 33 26 34
REMARK SMILES IDX 27 35 28 36 34 37 29 38 32 39 30 40 31 41 33 42
REMARK H PARENT 7 18 21 26
ROOT
ATOM      1  C   UNL     1      18.337  30.008  10.103  1.00  0.00    +0.018 A 
ATOM      2  C   UNL     1      18.669  29.815   8.761  1.00  0.00    +0.014 A 
ATOM      3  C   UNL     1      18.596  30.871   7.845  1.00  0.00    +0.030 A 
ATOM      4  C   UNL     1      18.204  32.147   8.226  1.00  0.00    +0.076 A 
ATOM      5  N   UNL     1      18.146  33.102   7.295  1.00  0.00    -0.236 NA
ATOM      6  C   UNL     1      17.755  34.313   7.702  1.00  0.00    +0.224 A 
ATOM      7  N   UNL     1      17.433  34.659   8.951  1.00  0.00    -0.219 NA
ATOM      8  C   UNL     1      17.508  33.695   9.886  1.00  0.00    +0.141 A 
ATOM      9  C   UNL     1      17.885  32.374   9.570  1.00  0.00    +0.044 A 
ATOM     10  C   UNL     1      17.945  31.294  10.496  1.00  0.00    +0.026 A 
ENDROOT
BRANCH   1  11
ATOM     11  C   UNL     1      18.389  28.912  11.068  1.00  0.00    +0.134 A 
ATOM     12  C   UNL     1      18.014  26.825  11.676  1.00  0.00    +0.118 A 
ATOM     13  C   UNL     1      18.615  27.441  12.753  1.00  0.00    +0.047 A 
ATOM     14  O   UNL     1      17.869  27.717  10.654  1.00  0.00    -0.460 OA
ATOM     15  C   UNL     1      18.858  28.780  12.362  1.00  0.00    +0.051 A 
BRANCH  12  16
ATOM     16  C   UNL     1      17.507  25.447  11.434  1.00  0.00    +0.157 C 
BRANCH  16  17
ATOM     17  N   UNL     1      16.113  25.327  11.871  1.00  0.00    -0.309 NA
ATOM     18  H   UNL     1      15.712  26.263  11.919  1.00  0.00    +0.123 HD
BRANCH  17  19
ATOM     19  C   UNL     1      15.306  24.498  10.968  1.00  0.00    +0.097 C 
BRANCH  19  20
ATOM     20  C   UNL     1      14.950  23.152  11.582  1.00  0.00    +0.152 C 
BRANCH  20  21
ATOM     21  S   UNL     1      15.003  23.198  13.366  1.00  0.00    +0.148 S 
ATOM     22  O   UNL     1      14.295  24.377  13.825  1.00  0.00    -0.229 OA
ATOM     23  O   UNL     1      16.375  22.956  13.770  1.00  0.00    -0.229 OA
ATOM     24  C   UNL     1      14.058  21.774  13.858  1.00  0.00    +0.158 C 
ENDBRANCH  20  21
ENDBRANCH  19  20
ENDBRANCH  17  19
ENDBRANCH  16  17
ENDBRANCH  12  16
ENDBRANCH   1  11
BRANCH   8  25
ATOM     25  N   UNL     1      17.222  34.020  11.242  1.00  0.00    -0.340 N 
ATOM     26  H   UNL     1      17.602  34.942  11.435  1.00  0.00    +0.168 HD
BRANCH  25  27
ATOM     27  C   UNL     1      16.023  33.793  11.956  1.00  0.00    +0.041 A 
ATOM     28  C   UNL     1      14.978  33.011  11.444  1.00  0.00    +0.050 A 
ATOM     29  C   UNL     1      15.922  34.251  13.280  1.00  0.00    +0.030 A 
ATOM     30  C   UNL     1      13.833  32.756  12.204  1.00  0.00    +0.085 A 
ATOM     31  C   UNL     1      14.780  33.999  14.045  1.00  0.00    +0.050 A 
ATOM     32  C   UNL     1      13.725  33.275  13.496  1.00  0.00    +0.138 A 
ATOM     33 Cl   UNL     1      12.582  31.784  11.517  1.00  0.00    -0.080 Cl
BRANCH  32  34
ATOM     34  O   UNL     1      12.637  33.032  14.292  1.00  0.00    -0.487 OA
BRANCH  34  35
ATOM     35  C   UNL     1      12.014  34.254  14.711  1.00  0.00    +0.265 C 
BRANCH  35  36
ATOM     36  C   UNL     1      10.612  34.332  14.156  1.00  0.00    -0.008 A 
ATOM     37  C   UNL     1       9.505  34.375  15.014  1.00  0.00    +0.046 A 
ATOM     38  C   UNL     1      10.397  34.344  12.768  1.00  0.00    +0.007 A 
ATOM     39  C   UNL     1       8.220  34.434  14.485  1.00  0.00    +0.123 A 
ATOM     40  C   UNL     1       9.102  34.404  12.248  1.00  0.00    +0.003 A 
ATOM     41  C   UNL     1       8.009  34.451  13.110  1.00  0.00    +0.039 A 
ATOM     42  F   UNL     1       7.168  34.472  15.313  1.00  0.00    -0.207 F 
ENDBRANCH  35  36
ENDBRANCH  34  35
ENDBRANCH  32  34
ENDBRANCH  25  27
ENDBRANCH   8  25
TORSDOF 11
ENDMDL
MODEL 8
REMARK VINA RESULT:    -1.873      3.584      6.000
REMARK INTER + INTRA:          -6.584
REMARK INTER:                  -6.516
REMARK INTRA:                  -0.069
REMARK UNBOUND:                -3.507
REMARK SMILES CS(=O)(=O)CCNCc1ccc(-c2ccc3ncnc(Nc4ccc(OCc5cccc(F)c5)c(Cl)c4)c3c2)o1
REMARK SMILES IDX 13 1 14 2 15 3 16 4 17 5 18 6 19 7 20 8 38 9 39 10 12 11
REMARK SMILES IDX 9 12 10 13 40 14 11 15 8 16 7 17 6 19 5 20 2 21 3 22 4 23
REMARK SMILES IDX 1 24 21 25 22 27 37 28 23 29 35 30 24 31 25 32 36 33 26 34
REMARK SMILES IDX 27 35 28 36 34 37 29 38 32 39 30 40 31 41 33 42
REMARK H PARENT 7 18 21 26
ROOT
ATOM      1  C   UNL     1      17.894  25.209  11.434  1.00  0.00    +0.018 A 
ATOM      2  C   UNL     1      18.289  25.144  10.097  1.00  0.00    +0.014 A 
ATOM      3  C   UNL     1      18.425  26.309   9.333  1.00  0.00    +0.030 A 
ATOM      4  C   UNL     1      18.185  27.568   9.864  1.00  0.00    +0.076 A 
ATOM      5  N   UNL     1      18.323  28.633   9.071  1.00  0.00    -0.236 NA
ATOM      6  C   UNL     1      18.073  29.826   9.620  1.00  0.00    +0.224 A 
ATOM      7  N   UNL     1      17.715  30.052  10.886  1.00  0.00    -0.219 NA
ATOM      8  C   UNL     1      17.592  28.975  11.683  1.00  0.00    +0.141 A 
ATOM      9  C   UNL     1      17.806  27.664  11.208  1.00  0.00    +0.044 A 
ATOM     10  C   UNL     1      17.655  26.478  11.979  1.00  0.00    +0.026 A 
ENDROOT
BRANCH   1  11
ATOM     11  C   UNL     1      17.729  24.003  12.241  1.00  0.00    +0.134 A 
ATOM     12  C   UNL     1      16.498  22.560  13.367  1.00  0.00    +0.118 A 
ATOM     13  C   UNL     1      17.798  22.109  13.451  1.00  0.00    +0.047 A 
ATOM     14  O   UNL     1      16.453  23.713  12.641  1.00  0.00    -0.460 OA
ATOM     15  C   UNL     1      18.588  23.034  12.726  1.00  0.00    +0.051 A 
BRANCH  12  16
ATOM     16  C   UNL     1      15.203  22.060  13.904  1.00  0.00    +0.157 C 
BRANCH  16  17
ATOM     17  N   UNL     1      14.082  22.801  13.319  1.00  0.00    -0.309 NA
ATOM     18  H   UNL     1      13.238  22.570  13.843  1.00  0.00    +0.123 HD
BRANCH  17  19
ATOM     19  C   UNL     1      14.287  24.254  13.347  1.00  0.00    +0.097 C 
BRANCH  19  20
ATOM     20  C   UNL     1      13.913  24.864  14.691  1.00  0.00    +0.152 C 
BRANCH  20  21
ATOM     21  S   UNL     1      14.145  26.634  14.708  1.00  0.00    +0.148 S 
ATOM     22  O   UNL     1      15.428  26.932  15.312  1.00  0.00    -0.229 OA
ATOM     23  O   UNL     1      12.928  27.231  15.225  1.00  0.00    -0.229 OA
ATOM     24  C   UNL     1      14.245  27.068  12.986  1.00  0.00    +0.158 C 
ENDBRANCH  20  21
ENDBRANCH  19  20
ENDBRANCH  17  19
ENDBRANCH  16  17
ENDBRANCH  12  16
ENDBRANCH   1  11
BRANCH   8  25
ATOM     25  N   UNL     1      17.259  29.161  13.055  1.00  0.00    -0.340 N 
ATOM     26  H   UNL     1      18.081  28.949  13.612  1.00  0.00    +0.168 HD
BRANCH  25  27
ATOM     27  C   UNL     1      16.496  30.203  13.629  1.00  0.00    +0.041 A 
ATOM     28  C   UNL     1      16.763  31.557  13.384  1.00  0.00    +0.050 A 
ATOM     29  C   UNL     1      15.345  29.876  14.365  1.00  0.00    +0.030 A 
ATOM     30  C   UNL     1      15.948  32.558  13.919  1.00  0.00    +0.085 A 
ATOM     31  C   UNL     1      14.526  30.873  14.902  1.00  0.00    +0.050 A 
ATOM     32  C   UNL     1      14.844  32.214  14.701  1.00  0.00    +0.138 A 
ATOM     33 Cl   UNL     1      16.330  34.207  13.577  1.00  0.00    -0.080 Cl
BRANCH  32  34
ATOM     34  O   UNL     1      13.998  33.155  15.226  1.00  0.00    -0.487 OA
BRANCH  34  35
ATOM     35  C   UNL     1      12.638  32.699  15.212  1.00  0.00    +0.265 C 
BRANCH  35  36
ATOM     36  C   UNL     1      11.924  33.252  14.002  1.00  0.00    -0.008 A 
ATOM     37  C   UNL     1      12.285  32.846  12.711  1.00  0.00    +0.046 A 
ATOM     38  C   UNL     1      10.897  34.198  14.155  1.00  0.00    +0.007 A 
ATOM     39  C   UNL     1      11.624  33.376  11.607  1.00  0.00    +0.123 A 
ATOM     40  C   UNL     1      10.240  34.723  13.039  1.00  0.00    +0.003 A 
ATOM     41  C   UNL     1      10.604  34.308  11.760  1.00  0.00    +0.039 A 
ATOM     42  F   UNL     1      11.978  32.983  10.377  1.00  0.00    -0.207 F 
ENDBRANCH  35  36
ENDBRANCH  34  35
ENDBRANCH  32  34
ENDBRANCH  25  27
ENDBRANCH   8  25
TORSDOF 11
ENDMDL
