MODEL 1
REMARK VINA RESULT:    -7.290      0.000      0.000
REMARK INTER + INTRA:         -10.633
REMARK INTER:                  -9.634
REMARK INTRA:                  -0.999
REMARK UNBOUND:                -0.999
REMARK SMILES O=C(O)COc1ccc(Cl)cc1C(=O)c1cccs1
REMARK SMILES IDX 5 1 6 2 9 3 11 4 8 5 12 6 7 7 10 8 13 9 14 10 15 11 16 12
REMARK SMILES IDX 19 13 17 14 18 15 4 16 2 17 1 18 3 19
REMARK H PARENT 3 20
ROOT
ATOM      1  O   UNL     1     -10.099 -10.741  32.517  1.00  0.00    -0.481 OA
ENDROOT
BRANCH   1   2
ATOM      2  C   UNL     1     -10.829 -11.881  32.714  1.00  0.00    +0.131 A 
ATOM      3  C   UNL     1     -12.273 -14.212  33.209  1.00  0.00    +0.042 A 
ATOM      4  C   UNL     1     -11.458 -14.141  32.081  1.00  0.00    +0.036 A 
ATOM      5  C   UNL     1     -12.357 -13.138  34.097  1.00  0.00    +0.024 A 
ATOM      6  C   UNL     1     -10.722 -12.975  31.849  1.00  0.00    +0.067 A 
ATOM      7  C   UNL     1     -11.628 -11.972  33.853  1.00  0.00    +0.049 A 
ATOM      8 Cl   UNL     1     -13.178 -15.643  33.514  1.00  0.00    -0.084 Cl
BRANCH   6   9
ATOM      9  C   UNL     1      -9.856 -12.897  30.659  1.00  0.00    +0.206 C 
ATOM     10  O   UNL     1     -10.368 -12.409  29.651  1.00  0.00    -0.288 OA
BRANCH   9  11
ATOM     11  C   UNL     1      -8.489 -13.395  30.708  1.00  0.00    +0.075 A 
ATOM     12  C   UNL     1      -8.069 -14.666  30.356  1.00  0.00    +0.024 A 
ATOM     13  S   UNL     1      -7.167 -12.432  31.217  1.00  0.00    -0.140 S 
ATOM     14  C   UNL     1      -6.664 -14.844  30.511  1.00  0.00    +0.012 A 
ATOM     15  C   UNL     1      -6.051 -13.703  30.975  1.00  0.00    +0.065 A 
ENDBRANCH   9  11
ENDBRANCH   6   9
ENDBRANCH   1   2
BRANCH   1  16
ATOM     16  C   UNL     1     -10.945  -9.608  32.292  1.00  0.00    +0.351 C 
BRANCH  16  17
ATOM     17  C   UNL     1     -10.512  -8.800  31.081  1.00  0.00    +0.341 C 
ATOM     18  O   UNL     1     -10.800  -7.645  30.810  1.00  0.00    -0.248 OA
BRANCH  17  19
ATOM     19  O   UNL     1      -9.726  -9.513  30.245  1.00  0.00    -0.479 OA
ATOM     20  H   UNL     1      -8.877  -9.023  30.238  1.00  0.00    +0.296 HD
ENDBRANCH  17  19
ENDBRANCH  16  17
ENDBRANCH   1  16
TORSDOF 6
ENDMDL
MODEL 2
REMARK VINA RESULT:    -7.201      2.983      5.755
REMARK INTER + INTRA:         -10.515
REMARK INTER:                  -9.807
REMARK INTRA:                  -0.708
REMARK UNBOUND:                -0.999
REMARK SMILES O=C(O)COc1ccc(Cl)cc1C(=O)c1cccs1
REMARK SMILES IDX 5 1 6 2 9 3 11 4 8 5 12 6 7 7 10 8 13 9 14 10 15 11 16 12
REMARK SMILES IDX 19 13 17 14 18 15 4 16 2 17 1 18 3 19
REMARK H PARENT 3 20
ROOT
ATOM      1  O   UNL     1     -11.654 -13.175  31.912  1.00  0.00    -0.481 OA
ENDROOT
BRANCH   1   2
ATOM      2  C   UNL     1     -10.307 -13.013  31.734  1.00  0.00    +0.131 A 
ATOM      3  C   UNL     1      -7.549 -12.776  31.410  1.00  0.00    +0.042 A 
ATOM      4  C   UNL     1      -8.235 -11.816  32.152  1.00  0.00    +0.036 A 
ATOM      5  C   UNL     1      -8.228 -13.858  30.847  1.00  0.00    +0.024 A 
ATOM      6  C   UNL     1      -9.616 -11.951  32.326  1.00  0.00    +0.067 A 
ATOM      7  C   UNL     1      -9.609 -13.981  31.014  1.00  0.00    +0.049 A 
ATOM      8 Cl   UNL     1      -5.849 -12.630  31.194  1.00  0.00    -0.084 Cl
BRANCH   6   9
ATOM      9  C   UNL     1     -10.342 -10.939  33.113  1.00  0.00    +0.206 C 
ATOM     10  O   UNL     1     -10.562 -11.228  34.290  1.00  0.00    -0.288 OA
BRANCH   9  11
ATOM     11  C   UNL     1     -10.772  -9.694  32.495  1.00  0.00    +0.075 A 
ATOM     12  C   UNL     1     -11.949  -9.014  32.758  1.00  0.00    +0.024 A 
ATOM     13  S   UNL     1      -9.836  -8.867  31.323  1.00  0.00    -0.140 S 
ATOM     14  C   UNL     1     -12.079  -7.820  31.992  1.00  0.00    +0.012 A 
ATOM     15  C   UNL     1     -10.996  -7.621  31.167  1.00  0.00    +0.065 A 
ENDBRANCH   9  11
ENDBRANCH   6   9
ENDBRANCH   1   2
BRANCH   1  16
ATOM     16  C   UNL     1     -11.977 -14.523  32.274  1.00  0.00    +0.351 C 
BRANCH  16  17
ATOM     17  C   UNL     1     -12.427 -14.637  33.720  1.00  0.00    +0.341 C 
ATOM     18  O   UNL     1     -12.812 -15.635  34.307  1.00  0.00    -0.248 OA
BRANCH  17  19
ATOM     19  O   UNL     1     -12.381 -13.451  34.365  1.00  0.00    -0.479 OA
ATOM     20  H   UNL     1     -12.921 -13.596  35.170  1.00  0.00    +0.296 HD
ENDBRANCH  17  19
ENDBRANCH  16  17
ENDBRANCH   1  16
TORSDOF 6
ENDMDL
MODEL 3
REMARK VINA RESULT:    -7.051      3.251      5.318
REMARK INTER + INTRA:         -10.318
REMARK INTER:                  -9.849
REMARK INTRA:                  -0.469
REMARK UNBOUND:                -0.999
REMARK SMILES O=C(O)COc1ccc(Cl)cc1C(=O)c1cccs1
REMARK SMILES IDX 5 1 6 2 9 3 11 4 8 5 12 6 7 7 10 8 13 9 14 10 15 11 16 12
REMARK SMILES IDX 19 13 17 14 18 15 4 16 2 17 1 18 3 19
REMARK H PARENT 3 20
ROOT
ATOM      1  O   UNL     1      -7.426  -9.982  33.349  1.00  0.00    -0.481 OA
ENDROOT
BRANCH   1   2
ATOM      2  C   UNL     1      -7.765 -11.094  32.628  1.00  0.00    +0.131 A 
ATOM      3  C   UNL     1      -8.407 -13.318  31.076  1.00  0.00    +0.042 A 
ATOM      4  C   UNL     1      -9.426 -12.613  31.713  1.00  0.00    +0.036 A 
ATOM      5  C   UNL     1      -7.077 -12.910  31.194  1.00  0.00    +0.024 A 
ATOM      6  C   UNL     1      -9.098 -11.487  32.475  1.00  0.00    +0.067 A 
ATOM      7  C   UNL     1      -6.755 -11.791  31.966  1.00  0.00    +0.049 A 
ATOM      8 Cl   UNL     1      -8.794 -14.700  30.127  1.00  0.00    -0.084 Cl
BRANCH   6   9
ATOM      9  C   UNL     1     -10.174 -10.737  33.148  1.00  0.00    +0.206 C 
ATOM     10  O   UNL     1     -10.560 -11.197  34.223  1.00  0.00    -0.288 OA
BRANCH   9  11
ATOM     11  C   UNL     1     -10.732  -9.540  32.536  1.00  0.00    +0.075 A 
ATOM     12  C   UNL     1     -11.970  -8.985  32.807  1.00  0.00    +0.024 A 
ATOM     13  S   UNL     1      -9.891  -8.618  31.363  1.00  0.00    -0.140 S 
ATOM     14  C   UNL     1     -12.225  -7.808  32.046  1.00  0.00    +0.012 A 
ATOM     15  C   UNL     1     -11.172  -7.496  31.217  1.00  0.00    +0.065 A 
ENDBRANCH   9  11
ENDBRANCH   6   9
ENDBRANCH   1   2
BRANCH   1  16
ATOM     16  C   UNL     1      -6.341  -9.272  32.742  1.00  0.00    +0.351 C 
BRANCH  16  17
ATOM     17  C   UNL     1      -6.099  -7.924  33.397  1.00  0.00    +0.341 C 
ATOM     18  O   UNL     1      -5.110  -7.214  33.306  1.00  0.00    -0.248 OA
BRANCH  17  19
ATOM     19  O   UNL     1      -7.140  -7.534  34.164  1.00  0.00    -0.479 OA
ATOM     20  H   UNL     1      -6.811  -6.733  34.624  1.00  0.00    +0.296 HD
ENDBRANCH  17  19
ENDBRANCH  16  17
ENDBRANCH   1  16
TORSDOF 6
ENDMDL
MODEL 4
REMARK VINA RESULT:    -6.912      3.212      4.714
REMARK INTER + INTRA:         -10.133
REMARK INTER:                  -9.295
REMARK INTRA:                  -0.839
REMARK UNBOUND:                -0.999
REMARK SMILES O=C(O)COc1ccc(Cl)cc1C(=O)c1cccs1
REMARK SMILES IDX 5 1 6 2 9 3 11 4 8 5 12 6 7 7 10 8 13 9 14 10 15 11 16 12
REMARK SMILES IDX 19 13 17 14 18 15 4 16 2 17 1 18 3 19
REMARK H PARENT 3 20
ROOT
ATOM      1  O   UNL     1      -7.473  -8.695  31.136  1.00  0.00    -0.481 OA
ENDROOT
BRANCH   1   2
ATOM      2  C   UNL     1      -8.806  -8.522  31.390  1.00  0.00    +0.131 A 
ATOM      3  C   UNL     1     -11.500  -8.077  31.945  1.00  0.00    +0.042 A 
ATOM      4  C   UNL     1     -10.872  -9.203  32.472  1.00  0.00    +0.036 A 
ATOM      5  C   UNL     1     -10.790  -7.166  31.160  1.00  0.00    +0.024 A 
ATOM      6  C   UNL     1      -9.515  -9.410  32.205  1.00  0.00    +0.067 A 
ATOM      7  C   UNL     1      -9.438  -7.386  30.887  1.00  0.00    +0.049 A 
ATOM      8 Cl   UNL     1     -13.167  -7.801  32.272  1.00  0.00    -0.084 Cl
BRANCH   6   9
ATOM      9  C   UNL     1      -8.847 -10.599  32.764  1.00  0.00    +0.206 C 
ATOM     10  O   UNL     1      -8.196 -10.417  33.794  1.00  0.00    -0.288 OA
BRANCH   9  11
ATOM     11  C   UNL     1      -8.960 -11.889  32.100  1.00  0.00    +0.075 A 
ATOM     12  C   UNL     1      -7.922 -12.615  31.543  1.00  0.00    +0.024 A 
ATOM     13  S   UNL     1     -10.449 -12.717  31.926  1.00  0.00    -0.140 S 
ATOM     14  C   UNL     1      -8.356 -13.845  30.969  1.00  0.00    +0.012 A 
ATOM     15  C   UNL     1      -9.712 -14.024  31.108  1.00  0.00    +0.065 A 
ENDBRANCH   9  11
ENDBRANCH   6   9
ENDBRANCH   1   2
BRANCH   1  16
ATOM     16  C   UNL     1      -6.704  -7.573  31.581  1.00  0.00    +0.351 C 
BRANCH  16  17
ATOM     17  C   UNL     1      -6.672  -7.462  33.095  1.00  0.00    +0.341 C 
ATOM     18  O   UNL     1      -7.152  -6.582  33.792  1.00  0.00    -0.248 OA
BRANCH  17  19
ATOM     19  O   UNL     1      -6.008  -8.489  33.669  1.00  0.00    -0.479 OA
ATOM     20  H   UNL     1      -5.812  -8.170  34.575  1.00  0.00    +0.296 HD
ENDBRANCH  17  19
ENDBRANCH  16  17
ENDBRANCH   1  16
TORSDOF 6
ENDMDL
MODEL 5
REMARK VINA RESULT:    -6.788      2.671      3.500
REMARK INTER + INTRA:          -9.970
REMARK INTER:                  -9.237
REMARK INTRA:                  -0.733
REMARK UNBOUND:                -0.999
REMARK SMILES O=C(O)COc1ccc(Cl)cc1C(=O)c1cccs1
REMARK SMILES IDX 5 1 6 2 9 3 11 4 8 5 12 6 7 7 10 8 13 9 14 10 15 11 16 12
REMARK SMILES IDX 19 13 17 14 18 15 4 16 2 17 1 18 3 19
REMARK H PARENT 3 20
ROOT
ATOM      1  O   UNL     1      -8.359  -8.485  31.615  1.00  0.00    -0.481 OA
ENDROOT
BRANCH   1   2
ATOM      2  C   UNL     1      -9.369  -9.263  32.111  1.00  0.00    +0.131 A 
ATOM      3  C   UNL     1     -11.451 -10.771  33.188  1.00  0.00    +0.042 A 
ATOM      4  C   UNL     1     -10.161 -11.297  33.179  1.00  0.00    +0.036 A 
ATOM      5  C   UNL     1     -11.704  -9.494  32.682  1.00  0.00    +0.024 A 
ATOM      6  C   UNL     1      -9.118 -10.527  32.654  1.00  0.00    +0.067 A 
ATOM      7  C   UNL     1     -10.660  -8.735  32.148  1.00  0.00    +0.049 A 
ATOM      8 Cl   UNL     1     -12.744 -11.701  33.839  1.00  0.00    -0.084 Cl
BRANCH   6   9
ATOM      9  C   UNL     1      -7.752 -11.080  32.645  1.00  0.00    +0.206 C 
ATOM     10  O   UNL     1      -6.971 -10.599  33.467  1.00  0.00    -0.288 OA
BRANCH   9  11
ATOM     11  C   UNL     1      -7.383 -12.120  31.696  1.00  0.00    +0.075 A 
ATOM     12  C   UNL     1      -8.143 -13.226  31.360  1.00  0.00    +0.024 A 
ATOM     13  S   UNL     1      -5.907 -12.102  30.826  1.00  0.00    -0.140 S 
ATOM     14  C   UNL     1      -7.507 -14.058  30.394  1.00  0.00    +0.012 A 
ATOM     15  C   UNL     1      -6.280 -13.561  30.018  1.00  0.00    +0.065 A 
ENDBRANCH   9  11
ENDBRANCH   6   9
ENDBRANCH   1   2
BRANCH   1  16
ATOM     16  C   UNL     1      -8.368  -7.178  32.198  1.00  0.00    +0.351 C 
BRANCH  16  17
ATOM     17  C   UNL     1      -7.132  -6.916  33.040  1.00  0.00    +0.341 C 
ATOM     18  O   UNL     1      -6.248  -6.098  32.839  1.00  0.00    -0.248 OA
BRANCH  17  19
ATOM     19  O   UNL     1      -7.064  -7.732  34.115  1.00  0.00    -0.479 OA
ATOM     20  H   UNL     1      -7.866  -7.512  34.633  1.00  0.00    +0.296 HD
ENDBRANCH  17  19
ENDBRANCH  16  17
ENDBRANCH   1  16
TORSDOF 6
ENDMDL
MODEL 6
REMARK VINA RESULT:    -6.705      2.524      4.447
REMARK INTER + INTRA:          -9.860
REMARK INTER:                  -8.878
REMARK INTRA:                  -0.982
REMARK UNBOUND:                -0.999
REMARK SMILES O=C(O)COc1ccc(Cl)cc1C(=O)c1cccs1
REMARK SMILES IDX 5 1 6 2 9 3 11 4 8 5 12 6 7 7 10 8 13 9 14 10 15 11 16 12
REMARK SMILES IDX 19 13 17 14 18 15 4 16 2 17 1 18 3 19
REMARK H PARENT 3 20
ROOT
ATOM      1  O   UNL     1      -8.957 -10.209  32.126  1.00  0.00    -0.481 OA
ENDROOT
BRANCH   1   2
ATOM      2  C   UNL     1      -8.178 -11.290  31.816  1.00  0.00    +0.131 A 
ATOM      3  C   UNL     1      -6.536 -13.432  31.123  1.00  0.00    +0.042 A 
ATOM      4  C   UNL     1      -7.912 -13.535  30.927  1.00  0.00    +0.036 A 
ATOM      5  C   UNL     1      -5.976 -12.264  31.644  1.00  0.00    +0.024 A 
ATOM      6  C   UNL     1      -8.728 -12.450  31.260  1.00  0.00    +0.067 A 
ATOM      7  C   UNL     1      -6.798 -11.187  31.985  1.00  0.00    +0.049 A 
ATOM      8 Cl   UNL     1      -5.517 -14.755  30.710  1.00  0.00    -0.084 Cl
BRANCH   6   9
ATOM      9  C   UNL     1     -10.183 -12.555  31.051  1.00  0.00    +0.206 C 
ATOM     10  O   UNL     1     -10.596 -12.200  29.946  1.00  0.00    -0.288 OA
BRANCH   9  11
ATOM     11  C   UNL     1     -11.048 -13.039  32.117  1.00  0.00    +0.075 A 
ATOM     12  C   UNL     1     -11.519 -12.298  33.187  1.00  0.00    +0.024 A 
ATOM     13  S   UNL     1     -11.629 -14.649  32.184  1.00  0.00    -0.140 S 
ATOM     14  C   UNL     1     -12.350 -13.057  34.059  1.00  0.00    +0.012 A 
ATOM     15  C   UNL     1     -12.492 -14.356  33.629  1.00  0.00    +0.065 A 
ENDBRANCH   9  11
ENDBRANCH   6   9
ENDBRANCH   1   2
BRANCH   1  16
ATOM     16  C   UNL     1      -8.525  -9.034  31.431  1.00  0.00    +0.351 C 
BRANCH  16  17
ATOM     17  C   UNL     1      -9.633  -8.422  30.593  1.00  0.00    +0.341 C 
ATOM     18  O   UNL     1     -10.066  -7.281  30.641  1.00  0.00    -0.248 OA
BRANCH  17  19
ATOM     19  O   UNL     1     -10.164  -9.308  29.722  1.00  0.00    -0.479 OA
ATOM     20  H   UNL     1      -9.992  -8.909  28.842  1.00  0.00    +0.296 HD
ENDBRANCH  17  19
ENDBRANCH  16  17
ENDBRANCH   1  16
TORSDOF 6
ENDMDL
MODEL 7
REMARK VINA RESULT:    -6.656      3.086      4.007
REMARK INTER + INTRA:          -9.796
REMARK INTER:                  -9.160
REMARK INTRA:                  -0.636
REMARK UNBOUND:                -0.999
REMARK SMILES O=C(O)COc1ccc(Cl)cc1C(=O)c1cccs1
REMARK SMILES IDX 5 1 6 2 9 3 11 4 8 5 12 6 7 7 10 8 13 9 14 10 15 11 16 12
REMARK SMILES IDX 19 13 17 14 18 15 4 16 2 17 1 18 3 19
REMARK H PARENT 3 20
ROOT
ATOM      1  O   UNL     1      -9.867  -9.752  32.770  1.00  0.00    -0.481 OA
ENDROOT
BRANCH   1   2
ATOM      2  C   UNL     1      -9.487 -10.956  32.243  1.00  0.00    +0.131 A 
ATOM      3  C   UNL     1      -8.778 -13.454  31.232  1.00  0.00    +0.042 A 
ATOM      4  C   UNL     1      -7.789 -12.624  31.756  1.00  0.00    +0.036 A 
ATOM      5  C   UNL     1     -10.115 -13.053  31.226  1.00  0.00    +0.024 A 
ATOM      6  C   UNL     1      -8.154 -11.379  32.278  1.00  0.00    +0.067 A 
ATOM      7  C   UNL     1     -10.472 -11.804  31.739  1.00  0.00    +0.049 A 
ATOM      8 Cl   UNL     1      -8.347 -14.993  30.594  1.00  0.00    -0.084 Cl
BRANCH   6   9
ATOM      9  C   UNL     1      -7.111 -10.501  32.836  1.00  0.00    +0.206 C 
ATOM     10  O   UNL     1      -7.156 -10.317  34.053  1.00  0.00    -0.288 OA
BRANCH   9  11
ATOM     11  C   UNL     1      -6.116  -9.893  31.965  1.00  0.00    +0.075 A 
ATOM     12  C   UNL     1      -4.760 -10.173  31.952  1.00  0.00    +0.024 A 
ATOM     13  S   UNL     1      -6.509  -8.715  30.785  1.00  0.00    -0.140 S 
ATOM     14  C   UNL     1      -4.050  -9.414  30.979  1.00  0.00    +0.012 A 
ATOM     15  C   UNL     1      -4.884  -8.578  30.273  1.00  0.00    +0.065 A 
ENDBRANCH   9  11
ENDBRANCH   6   9
ENDBRANCH   1   2
BRANCH   1  16
ATOM     16  C   UNL     1     -10.272  -8.835  31.747  1.00  0.00    +0.351 C 
BRANCH  16  17
ATOM     17  C   UNL     1     -11.593  -8.161  32.071  1.00  0.00    +0.341 C 
ATOM     18  O   UNL     1     -12.491  -8.576  32.787  1.00  0.00    -0.248 OA
BRANCH  17  19
ATOM     19  O   UNL     1     -11.725  -6.969  31.447  1.00  0.00    -0.479 OA
ATOM     20  H   UNL     1     -12.116  -7.198  30.577  1.00  0.00    +0.296 HD
ENDBRANCH  17  19
ENDBRANCH  16  17
ENDBRANCH   1  16
TORSDOF 6
ENDMDL
MODEL 8
REMARK VINA RESULT:    -6.519      3.204      4.872
REMARK INTER + INTRA:          -9.614
REMARK INTER:                  -8.977
REMARK INTRA:                  -0.637
REMARK UNBOUND:                -0.999
REMARK SMILES O=C(O)COc1ccc(Cl)cc1C(=O)c1cccs1
REMARK SMILES IDX 5 1 6 2 9 3 11 4 8 5 12 6 7 7 10 8 13 9 14 10 15 11 16 12
REMARK SMILES IDX 19 13 17 14 18 15 4 16 2 17 1 18 3 19
REMARK H PARENT 3 20
ROOT
ATOM      1  O   UNL     1      -7.991  -9.732  32.454  1.00  0.00    -0.481 OA
ENDROOT
BRANCH   1   2
ATOM      2  C   UNL     1      -7.532 -10.939  32.003  1.00  0.00    +0.131 A 
ATOM      3  C   UNL     1      -6.530 -13.348  31.023  1.00  0.00    +0.042 A 
ATOM      4  C   UNL     1      -7.895 -13.086  30.926  1.00  0.00    +0.036 A 
ATOM      5  C   UNL     1      -5.663 -12.410  31.587  1.00  0.00    +0.024 A 
ATOM      6  C   UNL     1      -8.388 -11.868  31.403  1.00  0.00    +0.067 A 
ATOM      7  C   UNL     1      -6.164 -11.200  32.073  1.00  0.00    +0.049 A 
ATOM      8 Cl   UNL     1      -5.906 -14.838  30.432  1.00  0.00    -0.084 Cl
BRANCH   6   9
ATOM      9  C   UNL     1      -9.831 -11.587  31.298  1.00  0.00    +0.206 C 
ATOM     10  O   UNL     1     -10.161 -10.779  30.430  1.00  0.00    -0.288 OA
BRANCH   9  11
ATOM     11  C   UNL     1     -10.775 -12.235  32.197  1.00  0.00    +0.075 A 
ATOM     12  C   UNL     1     -11.396 -13.454  31.990  1.00  0.00    +0.024 A 
ATOM     13  S   UNL     1     -11.250 -11.552  33.694  1.00  0.00    -0.140 S 
ATOM     14  C   UNL     1     -12.264 -13.819  33.059  1.00  0.00    +0.012 A 
ATOM     15  C   UNL     1     -12.279 -12.868  34.054  1.00  0.00    +0.065 A 
ENDBRANCH   9  11
ENDBRANCH   6   9
ENDBRANCH   1   2
BRANCH   1  16
ATOM     16  C   UNL     1      -7.103  -8.666  32.099  1.00  0.00    +0.351 C 
BRANCH  16  17
ATOM     17  C   UNL     1      -6.944  -7.654  33.220  1.00  0.00    +0.341 C 
ATOM     18  O   UNL     1      -7.493  -6.570  33.333  1.00  0.00    -0.248 OA
BRANCH  17  19
ATOM     19  O   UNL     1      -6.066  -8.067  34.161  1.00  0.00    -0.479 OA
ATOM     20  H   UNL     1      -5.321  -7.434  34.086  1.00  0.00    +0.296 HD
ENDBRANCH  17  19
ENDBRANCH  16  17
ENDBRANCH   1  16
TORSDOF 6
ENDMDL
MODEL 9
REMARK VINA RESULT:    -6.477      3.152      5.268
REMARK INTER + INTRA:          -9.558
REMARK INTER:                  -8.857
REMARK INTRA:                  -0.702
REMARK UNBOUND:                -0.999
REMARK SMILES O=C(O)COc1ccc(Cl)cc1C(=O)c1cccs1
REMARK SMILES IDX 5 1 6 2 9 3 11 4 8 5 12 6 7 7 10 8 13 9 14 10 15 11 16 12
REMARK SMILES IDX 19 13 17 14 18 15 4 16 2 17 1 18 3 19
REMARK H PARENT 3 20
ROOT
ATOM      1  O   UNL     1      -6.776 -12.318  31.512  1.00  0.00    -0.481 OA
ENDROOT
BRANCH   1   2
ATOM      2  C   UNL     1      -8.091 -12.237  31.879  1.00  0.00    +0.131 A 
ATOM      3  C   UNL     1     -10.797 -12.072  32.526  1.00  0.00    +0.042 A 
ATOM      4  C   UNL     1      -9.920 -11.100  33.003  1.00  0.00    +0.036 A 
ATOM      5  C   UNL     1     -10.335 -13.111  31.716  1.00  0.00    +0.024 A 
ATOM      6  C   UNL     1      -8.567 -11.178  32.659  1.00  0.00    +0.067 A 
ATOM      7  C   UNL     1      -8.980 -13.191  31.386  1.00  0.00    +0.049 A 
ATOM      8 Cl   UNL     1     -12.466 -11.985  32.932  1.00  0.00    -0.084 Cl
BRANCH   6   9
ATOM      9  C   UNL     1      -7.638 -10.149  33.160  1.00  0.00    +0.206 C 
ATOM     10  O   UNL     1      -7.156 -10.356  34.274  1.00  0.00    -0.288 OA
BRANCH   9  11
ATOM     11  C   UNL     1      -7.348  -8.967  32.362  1.00  0.00    +0.075 A 
ATOM     12  C   UNL     1      -8.158  -7.853  32.227  1.00  0.00    +0.024 A 
ATOM     13  S   UNL     1      -5.903  -8.787  31.460  1.00  0.00    -0.140 S 
ATOM     14  C   UNL     1      -7.591  -6.860  31.379  1.00  0.00    +0.012 A 
ATOM     15  C   UNL     1      -6.363  -7.242  30.892  1.00  0.00    +0.065 A 
ENDBRANCH   9  11
ENDBRANCH   6   9
ENDBRANCH   1   2
BRANCH   1  16
ATOM     16  C   UNL     1      -6.506 -13.524  30.788  1.00  0.00    +0.351 C 
BRANCH  16  17
ATOM     17  C   UNL     1      -5.611 -13.283  29.585  1.00  0.00    +0.341 C 
ATOM     18  O   UNL     1      -5.014 -14.113  28.918  1.00  0.00    -0.248 OA
BRANCH  17  19
ATOM     19  O   UNL     1      -5.499 -11.970  29.286  1.00  0.00    -0.479 OA
ATOM     20  H   UNL     1      -5.040 -11.586  30.063  1.00  0.00    +0.296 HD
ENDBRANCH  17  19
ENDBRANCH  16  17
ENDBRANCH   1  16
TORSDOF 6
ENDMDL
