MODEL 1
REMARK VINA RESULT:    -7.976      0.000      0.000
REMARK INTER + INTRA:          -9.812
REMARK INTER:                  -9.840
REMARK INTRA:                   0.029
REMARK UNBOUND:                 0.029
REMARK SMILES COC(=O)C(c1ccccc1Cl)N1CCc2sccc2C1
REMARK SMILES IDX 3 1 4 2 2 3 1 4 5 5 6 6 7 7 11 8 8 9 10 10 9 11 12 12 13 13
REMARK SMILES IDX 14 14 21 15 15 16 20 17 16 18 19 19 17 20 18 21
REMARK H PARENT
ROOT
ATOM      1  C   UNL     1     -11.084 -11.757  32.863  1.00  0.00    +0.327 C 
ATOM      2  O   UNL     1     -11.037 -11.951  34.076  1.00  0.00    -0.250 OA
ENDROOT
BRANCH   1   3
ATOM      3  O   UNL     1     -11.248 -10.531  32.296  1.00  0.00    -0.468 OA
ATOM      4  C   UNL     1     -11.925  -9.582  33.117  1.00  0.00    +0.282 C 
ENDBRANCH   1   3
BRANCH   1   5
ATOM      5  C   UNL     1     -10.929 -12.898  31.827  1.00  0.00    +0.200 C 
BRANCH   5   6
ATOM      6  C   UNL     1     -11.817 -14.073  32.245  1.00  0.00    -0.001 A 
ATOM      7  C   UNL     1     -11.220 -15.351  32.307  1.00  0.00    +0.007 A 
ATOM      8  C   UNL     1     -13.189 -13.974  32.538  1.00  0.00    +0.046 A 
ATOM      9  C   UNL     1     -11.959 -16.483  32.660  1.00  0.00    +0.000 A 
ATOM     10  C   UNL     1     -13.923 -15.114  32.894  1.00  0.00    +0.021 A 
ATOM     11  C   UNL     1     -13.311 -16.363  32.956  1.00  0.00    +0.002 A 
ATOM     12 Cl   UNL     1     -14.061 -12.484  32.504  1.00  0.00    -0.084 Cl
ENDBRANCH   5   6
BRANCH   5  13
ATOM     13  N   UNL     1      -9.508 -13.247  31.499  1.00  0.00    -0.282 NA
ATOM     14  C   UNL     1      -9.347 -13.592  30.061  1.00  0.00    +0.091 C 
ATOM     15  C   UNL     1      -8.602 -12.121  31.857  1.00  0.00    +0.122 C 
ATOM     16  C   UNL     1      -7.946 -14.165  29.753  1.00  0.00    +0.062 C 
ATOM     17  C   UNL     1      -7.197 -12.397  31.395  1.00  0.00    -0.020 A 
ATOM     18  C   UNL     1      -6.910 -13.318  30.410  1.00  0.00    +0.010 A 
ATOM     19  C   UNL     1      -6.006 -11.759  31.858  1.00  0.00    +0.017 A 
ATOM     20  S   UNL     1      -5.256 -13.423  30.048  1.00  0.00    -0.149 S 
ATOM     21  C   UNL     1      -4.880 -12.225  31.212  1.00  0.00    +0.065 A 
ENDBRANCH   5  13
ENDBRANCH   1   5
TORSDOF 4
ENDMDL
MODEL 2
REMARK VINA RESULT:    -7.806      3.961      6.925
REMARK INTER + INTRA:          -9.602
REMARK INTER:                  -9.260
REMARK INTRA:                  -0.342
REMARK UNBOUND:                 0.029
REMARK SMILES COC(=O)C(c1ccccc1Cl)N1CCc2sccc2C1
REMARK SMILES IDX 3 1 4 2 2 3 1 4 5 5 6 6 7 7 11 8 8 9 10 10 9 11 12 12 13 13
REMARK SMILES IDX 14 14 21 15 15 16 20 17 16 18 19 19 17 20 18 21
REMARK H PARENT
ROOT
ATOM      1  C   UNL     1      -6.489 -10.707  31.251  1.00  0.00    +0.327 C 
ATOM      2  O   UNL     1      -6.046 -11.632  31.930  1.00  0.00    -0.250 OA
ENDROOT
BRANCH   1   3
ATOM      3  O   UNL     1      -5.847 -10.181  30.173  1.00  0.00    -0.468 OA
ATOM      4  C   UNL     1      -4.524  -9.718  30.436  1.00  0.00    +0.282 C 
ENDBRANCH   1   3
BRANCH   1   5
ATOM      5  C   UNL     1      -7.860 -10.045  31.533  1.00  0.00    +0.200 C 
BRANCH   5   6
ATOM      6  C   UNL     1      -7.630  -8.679  32.185  1.00  0.00    -0.001 A 
ATOM      7  C   UNL     1      -6.682  -8.606  33.228  1.00  0.00    +0.007 A 
ATOM      8  C   UNL     1      -8.319  -7.502  31.839  1.00  0.00    +0.046 A 
ATOM      9  C   UNL     1      -6.421  -7.405  33.891  1.00  0.00    +0.000 A 
ATOM     10  C   UNL     1      -8.051  -6.300  32.508  1.00  0.00    +0.021 A 
ATOM     11  C   UNL     1      -7.105  -6.250  33.529  1.00  0.00    +0.002 A 
ATOM     12 Cl   UNL     1      -9.507  -7.432  30.589  1.00  0.00    -0.084 Cl
ENDBRANCH   5   6
BRANCH   5  13
ATOM     13  N   UNL     1      -8.844 -10.936  32.232  1.00  0.00    -0.282 NA
ATOM     14  C   UNL     1     -10.039 -10.178  32.690  1.00  0.00    +0.091 C 
ATOM     15  C   UNL     1      -9.262 -12.049  31.336  1.00  0.00    +0.122 C 
ATOM     16  C   UNL     1     -10.955 -11.028  33.599  1.00  0.00    +0.062 C 
ATOM     17  C   UNL     1     -10.360 -12.861  31.967  1.00  0.00    -0.020 A 
ATOM     18  C   UNL     1     -11.148 -12.373  32.987  1.00  0.00    +0.010 A 
ATOM     19  C   UNL     1     -10.757 -14.185  31.606  1.00  0.00    +0.017 A 
ATOM     20  S   UNL     1     -12.334 -13.469  33.506  1.00  0.00    -0.149 S 
ATOM     21  C   UNL     1     -11.817 -14.637  32.365  1.00  0.00    +0.065 A 
ENDBRANCH   5  13
ENDBRANCH   1   5
TORSDOF 4
ENDMDL
MODEL 3
REMARK VINA RESULT:    -7.633      3.450      4.711
REMARK INTER + INTRA:          -9.389
REMARK INTER:                  -9.056
REMARK INTRA:                  -0.333
REMARK UNBOUND:                 0.029
REMARK SMILES COC(=O)C(c1ccccc1Cl)N1CCc2sccc2C1
REMARK SMILES IDX 3 1 4 2 2 3 1 4 5 5 6 6 7 7 11 8 8 9 10 10 9 11 12 12 13 13
REMARK SMILES IDX 14 14 21 15 15 16 20 17 16 18 19 19 17 20 18 21
REMARK H PARENT
ROOT
ATOM      1  C   UNL     1      -7.532  -8.778  32.691  1.00  0.00    +0.327 C 
ATOM      2  O   UNL     1      -7.137  -9.208  33.773  1.00  0.00    -0.250 OA
ENDROOT
BRANCH   1   3
ATOM      3  O   UNL     1      -7.160  -7.577  32.170  1.00  0.00    -0.468 OA
ATOM      4  C   UNL     1      -7.386  -6.461  33.030  1.00  0.00    +0.282 C 
ENDBRANCH   1   3
BRANCH   1   5
ATOM      5  C   UNL     1      -8.486  -9.578  31.771  1.00  0.00    +0.200 C 
BRANCH   5   6
ATOM      6  C   UNL     1      -9.933  -9.207  32.110  1.00  0.00    -0.001 A 
ATOM      7  C   UNL     1     -10.626 -10.044  33.012  1.00  0.00    +0.007 A 
ATOM      8  C   UNL     1     -10.627  -8.114  31.562  1.00  0.00    +0.046 A 
ATOM      9  C   UNL     1     -11.953  -9.792  33.365  1.00  0.00    +0.000 A 
ATOM     10  C   UNL     1     -11.959  -7.866  31.922  1.00  0.00    +0.021 A 
ATOM     11  C   UNL     1     -12.620  -8.701  32.820  1.00  0.00    +0.002 A 
ATOM     12 Cl   UNL     1      -9.918  -7.003  30.446  1.00  0.00    -0.084 Cl
ENDBRANCH   5   6
BRANCH   5  13
ATOM     13  N   UNL     1      -8.195 -11.048  31.707  1.00  0.00    -0.282 NA
ATOM     14  C   UNL     1      -9.176 -11.763  30.847  1.00  0.00    +0.091 C 
ATOM     15  C   UNL     1      -6.814 -11.281  31.203  1.00  0.00    +0.122 C 
ATOM     16  C   UNL     1      -9.026 -13.298  30.946  1.00  0.00    +0.062 C 
ATOM     17  C   UNL     1      -6.562 -12.748  30.990  1.00  0.00    -0.020 A 
ATOM     18  C   UNL     1      -7.585 -13.662  30.847  1.00  0.00    +0.010 A 
ATOM     19  C   UNL     1      -5.289 -13.388  30.878  1.00  0.00    +0.017 A 
ATOM     20  S   UNL     1      -7.041 -15.247  30.588  1.00  0.00    -0.149 S 
ATOM     21  C   UNL     1      -5.405 -14.745  30.661  1.00  0.00    +0.065 A 
ENDBRANCH   5  13
ENDBRANCH   1   5
TORSDOF 4
ENDMDL
MODEL 4
REMARK VINA RESULT:    -7.507      3.828      7.007
REMARK INTER + INTRA:          -9.234
REMARK INTER:                  -8.954
REMARK INTRA:                  -0.280
REMARK UNBOUND:                 0.029
REMARK SMILES COC(=O)C(c1ccccc1Cl)N1CCc2sccc2C1
REMARK SMILES IDX 3 1 4 2 2 3 1 4 5 5 6 6 7 7 11 8 8 9 10 10 9 11 12 12 13 13
REMARK SMILES IDX 14 14 21 15 15 16 20 17 16 18 19 19 17 20 18 21
REMARK H PARENT
ROOT
ATOM      1  C   UNL     1      -8.637  -7.492  31.935  1.00  0.00    +0.327 C 
ATOM      2  O   UNL     1      -8.486  -6.477  32.613  1.00  0.00    -0.250 OA
ENDROOT
BRANCH   1   3
ATOM      3  O   UNL     1      -9.369  -7.538  30.790  1.00  0.00    -0.468 OA
ATOM      4  C   UNL     1     -10.494  -6.661  30.767  1.00  0.00    +0.282 C 
ENDBRANCH   1   3
BRANCH   1   5
ATOM      5  C   UNL     1      -7.977  -8.845  32.298  1.00  0.00    +0.200 C 
BRANCH   5   6
ATOM      6  C   UNL     1      -6.569  -8.890  31.699  1.00  0.00    -0.001 A 
ATOM      7  C   UNL     1      -6.413  -9.528  30.448  1.00  0.00    +0.007 A 
ATOM      8  C   UNL     1      -5.419  -8.371  32.320  1.00  0.00    +0.046 A 
ATOM      9  C   UNL     1      -5.163  -9.631  29.836  1.00  0.00    +0.000 A 
ATOM     10  C   UNL     1      -4.167  -8.477  31.698  1.00  0.00    +0.021 A 
ATOM     11  C   UNL     1      -4.039  -9.104  30.461  1.00  0.00    +0.002 A 
ATOM     12 Cl   UNL     1      -5.447  -7.567  33.847  1.00  0.00    -0.084 Cl
ENDBRANCH   5   6
BRANCH   5  13
ATOM     13  N   UNL     1      -8.835 -10.045  32.023  1.00  0.00    -0.282 NA
ATOM     14  C   UNL     1      -8.109 -11.312  32.304  1.00  0.00    +0.091 C 
ATOM     15  C   UNL     1     -10.084  -9.985  32.831  1.00  0.00    +0.122 C 
ATOM     16  C   UNL     1      -8.893 -12.552  31.819  1.00  0.00    +0.062 C 
ATOM     17  C   UNL     1     -10.880 -11.252  32.679  1.00  0.00    -0.020 A 
ATOM     18  C   UNL     1     -10.318 -12.432  32.239  1.00  0.00    +0.010 A 
ATOM     19  C   UNL     1     -12.266 -11.430  32.981  1.00  0.00    +0.017 A 
ATOM     20  S   UNL     1     -11.417 -13.722  32.183  1.00  0.00    -0.149 S 
ATOM     21  C   UNL     1     -12.686 -12.724  32.754  1.00  0.00    +0.065 A 
ENDBRANCH   5  13
ENDBRANCH   1   5
TORSDOF 4
ENDMDL
MODEL 5
REMARK VINA RESULT:    -7.420      2.860      3.805
REMARK INTER + INTRA:          -9.127
REMARK INTER:                  -9.022
REMARK INTRA:                  -0.105
REMARK UNBOUND:                 0.029
REMARK SMILES COC(=O)C(c1ccccc1Cl)N1CCc2sccc2C1
REMARK SMILES IDX 3 1 4 2 2 3 1 4 5 5 6 6 7 7 11 8 8 9 10 10 9 11 12 12 13 13
REMARK SMILES IDX 14 14 21 15 15 16 20 17 16 18 19 19 17 20 18 21
REMARK H PARENT
ROOT
ATOM      1  C   UNL     1     -10.588  -8.357  31.900  1.00  0.00    +0.327 C 
ATOM      2  O   UNL     1     -10.022  -7.335  32.284  1.00  0.00    -0.250 OA
ENDROOT
BRANCH   1   3
ATOM      3  O   UNL     1     -11.927  -8.445  31.676  1.00  0.00    -0.468 OA
ATOM      4  C   UNL     1     -12.729  -7.655  32.552  1.00  0.00    +0.282 C 
ENDBRANCH   1   3
BRANCH   1   5
ATOM      5  C   UNL     1      -9.826  -9.671  31.597  1.00  0.00    +0.200 C 
BRANCH   5   6
ATOM      6  C   UNL     1     -10.622 -10.851  32.161  1.00  0.00    -0.001 A 
ATOM      7  C   UNL     1     -11.082 -10.750  33.492  1.00  0.00    +0.007 A 
ATOM      8  C   UNL     1     -10.900 -12.037  31.458  1.00  0.00    +0.046 A 
ATOM      9  C   UNL     1     -11.800 -11.785  34.094  1.00  0.00    +0.000 A 
ATOM     10  C   UNL     1     -11.623 -13.071  32.068  1.00  0.00    +0.021 A 
ATOM     11  C   UNL     1     -12.073 -12.947  33.380  1.00  0.00    +0.002 A 
ATOM     12 Cl   UNL     1     -10.405 -12.310  29.827  1.00  0.00    -0.084 Cl
ENDBRANCH   5   6
BRANCH   5  13
ATOM     13  N   UNL     1      -8.371  -9.641  31.962  1.00  0.00    -0.282 NA
ATOM     14  C   UNL     1      -7.897 -10.970  32.432  1.00  0.00    +0.091 C 
ATOM     15  C   UNL     1      -7.556  -9.193  30.800  1.00  0.00    +0.122 C 
ATOM     16  C   UNL     1      -6.470 -10.906  33.018  1.00  0.00    +0.062 C 
ATOM     17  C   UNL     1      -6.086  -9.303  31.104  1.00  0.00    -0.020 A 
ATOM     18  C   UNL     1      -5.597 -10.113  32.107  1.00  0.00    +0.010 A 
ATOM     19  C   UNL     1      -5.021  -8.644  30.416  1.00  0.00    +0.017 A 
ATOM     20  S   UNL     1      -3.905 -10.086  32.229  1.00  0.00    -0.149 S 
ATOM     21  C   UNL     1      -3.784  -8.979  30.928  1.00  0.00    +0.065 A 
ENDBRANCH   5  13
ENDBRANCH   1   5
TORSDOF 4
ENDMDL
MODEL 6
REMARK VINA RESULT:    -7.285      4.290      6.136
REMARK INTER + INTRA:          -8.960
REMARK INTER:                  -9.068
REMARK INTRA:                   0.108
REMARK UNBOUND:                 0.029
REMARK SMILES COC(=O)C(c1ccccc1Cl)N1CCc2sccc2C1
REMARK SMILES IDX 3 1 4 2 2 3 1 4 5 5 6 6 7 7 11 8 8 9 10 10 9 11 12 12 13 13
REMARK SMILES IDX 14 14 21 15 15 16 20 17 16 18 19 19 17 20 18 21
REMARK H PARENT
ROOT
ATOM      1  C   UNL     1      -6.471 -10.579  31.500  1.00  0.00    +0.327 C 
ATOM      2  O   UNL     1      -6.286 -10.266  30.325  1.00  0.00    -0.250 OA
ENDROOT
BRANCH   1   3
ATOM      3  O   UNL     1      -5.688 -10.157  32.529  1.00  0.00    -0.468 OA
ATOM      4  C   UNL     1      -4.546  -9.398  32.136  1.00  0.00    +0.282 C 
ENDBRANCH   1   3
BRANCH   1   5
ATOM      5  C   UNL     1      -7.649 -11.477  31.951  1.00  0.00    +0.200 C 
BRANCH   5   6
ATOM      6  C   UNL     1      -7.610 -12.786  31.158  1.00  0.00    -0.001 A 
ATOM      7  C   UNL     1      -8.823 -13.245  30.599  1.00  0.00    +0.007 A 
ATOM      8  C   UNL     1      -6.461 -13.576  30.974  1.00  0.00    +0.046 A 
ATOM      9  C   UNL     1      -8.885 -14.438  29.875  1.00  0.00    +0.000 A 
ATOM     10  C   UNL     1      -6.530 -14.772  30.245  1.00  0.00    +0.021 A 
ATOM     11  C   UNL     1      -7.736 -15.201  29.697  1.00  0.00    +0.002 A 
ATOM     12 Cl   UNL     1      -4.908 -13.150  31.597  1.00  0.00    -0.084 Cl
ENDBRANCH   5   6
BRANCH   5  13
ATOM     13  N   UNL     1      -8.978 -10.783  31.986  1.00  0.00    -0.282 NA
ATOM     14  C   UNL     1      -9.678 -11.006  33.279  1.00  0.00    +0.091 C 
ATOM     15  C   UNL     1      -8.806  -9.323  31.748  1.00  0.00    +0.122 C 
ATOM     16  C   UNL     1     -11.133 -10.488  33.251  1.00  0.00    +0.062 C 
ATOM     17  C   UNL     1     -10.109  -8.594  31.930  1.00  0.00    -0.020 A 
ATOM     18  C   UNL     1     -11.161  -9.127  32.644  1.00  0.00    +0.010 A 
ATOM     19  C   UNL     1     -10.432  -7.290  31.443  1.00  0.00    +0.017 A 
ATOM     20  S   UNL     1     -12.507  -8.097  32.730  1.00  0.00    -0.149 S 
ATOM     21  C   UNL     1     -11.705  -6.900  31.805  1.00  0.00    +0.065 A 
ENDBRANCH   5  13
ENDBRANCH   1   5
TORSDOF 4
ENDMDL
MODEL 7
REMARK VINA RESULT:    -7.254      3.734      7.276
REMARK INTER + INTRA:          -8.921
REMARK INTER:                  -8.460
REMARK INTRA:                  -0.462
REMARK UNBOUND:                 0.029
REMARK SMILES COC(=O)C(c1ccccc1Cl)N1CCc2sccc2C1
REMARK SMILES IDX 3 1 4 2 2 3 1 4 5 5 6 6 7 7 11 8 8 9 10 10 9 11 12 12 13 13
REMARK SMILES IDX 14 14 21 15 15 16 20 17 16 18 19 19 17 20 18 21
REMARK H PARENT
ROOT
ATOM      1  C   UNL     1      -6.182 -13.594  30.223  1.00  0.00    +0.327 C 
ATOM      2  O   UNL     1      -6.070 -14.536  31.006  1.00  0.00    -0.250 OA
ENDROOT
BRANCH   1   3
ATOM      3  O   UNL     1      -5.919 -13.680  28.891  1.00  0.00    -0.468 OA
ATOM      4  C   UNL     1      -4.618 -14.169  28.571  1.00  0.00    +0.282 C 
ENDBRANCH   1   3
BRANCH   1   5
ATOM      5  C   UNL     1      -6.670 -12.193  30.665  1.00  0.00    +0.200 C 
BRANCH   5   6
ATOM      6  C   UNL     1      -5.469 -11.378  31.154  1.00  0.00    -0.001 A 
ATOM      7  C   UNL     1      -4.840 -11.796  32.346  1.00  0.00    +0.007 A 
ATOM      8  C   UNL     1      -4.971 -10.227  30.517  1.00  0.00    +0.046 A 
ATOM      9  C   UNL     1      -3.749 -11.103  32.876  1.00  0.00    +0.000 A 
ATOM     10  C   UNL     1      -3.875  -9.537  31.053  1.00  0.00    +0.021 A 
ATOM     11  C   UNL     1      -3.265  -9.973  32.227  1.00  0.00    +0.002 A 
ATOM     12 Cl   UNL     1      -5.633  -9.591  29.055  1.00  0.00    -0.084 Cl
ENDBRANCH   5   6
BRANCH   5  13
ATOM     13  N   UNL     1      -7.854 -12.212  31.585  1.00  0.00    -0.282 NA
ATOM     14  C   UNL     1      -8.402 -10.846  31.800  1.00  0.00    +0.091 C 
ATOM     15  C   UNL     1      -8.915 -13.105  31.043  1.00  0.00    +0.122 C 
ATOM     16  C   UNL     1      -9.476 -10.818  32.910  1.00  0.00    +0.062 C 
ATOM     17  C   UNL     1     -10.165 -13.016  31.876  1.00  0.00    -0.020 A 
ATOM     18  C   UNL     1     -10.425 -11.949  32.710  1.00  0.00    +0.010 A 
ATOM     19  C   UNL     1     -11.238 -13.960  31.908  1.00  0.00    +0.017 A 
ATOM     20  S   UNL     1     -11.912 -12.070  33.516  1.00  0.00    -0.149 S 
ATOM     21  C   UNL     1     -12.250 -13.569  32.760  1.00  0.00    +0.065 A 
ENDBRANCH   5  13
ENDBRANCH   1   5
TORSDOF 4
ENDMDL
MODEL 8
REMARK VINA RESULT:    -7.206      3.447      6.565
REMARK INTER + INTRA:          -8.863
REMARK INTER:                  -9.058
REMARK INTRA:                   0.195
REMARK UNBOUND:                 0.029
REMARK SMILES COC(=O)C(c1ccccc1Cl)N1CCc2sccc2C1
REMARK SMILES IDX 3 1 4 2 2 3 1 4 5 5 6 6 7 7 11 8 8 9 10 10 9 11 12 12 13 13
REMARK SMILES IDX 14 14 21 15 15 16 20 17 16 18 19 19 17 20 18 21
REMARK H PARENT
ROOT
ATOM      1  C   UNL     1      -9.597  -8.221  30.770  1.00  0.00    +0.327 C 
ATOM      2  O   UNL     1     -10.132  -8.849  29.858  1.00  0.00    -0.250 OA
ENDROOT
BRANCH   1   3
ATOM      3  O   UNL     1      -9.519  -6.864  30.813  1.00  0.00    -0.468 OA
ATOM      4  C   UNL     1     -10.535  -6.234  31.592  1.00  0.00    +0.282 C 
ENDBRANCH   1   3
BRANCH   1   5
ATOM      5  C   UNL     1      -8.969  -8.913  32.005  1.00  0.00    +0.200 C 
BRANCH   5   6
ATOM      6  C   UNL     1      -7.485  -9.171  31.731  1.00  0.00    -0.001 A 
ATOM      7  C   UNL     1      -6.972  -8.759  30.482  1.00  0.00    +0.007 A 
ATOM      8  C   UNL     1      -6.608  -9.817  32.621  1.00  0.00    +0.046 A 
ATOM      9  C   UNL     1      -5.634  -8.970  30.139  1.00  0.00    +0.000 A 
ATOM     10  C   UNL     1      -5.266 -10.024  32.271  1.00  0.00    +0.021 A 
ATOM     11  C   UNL     1      -4.780  -9.602  31.035  1.00  0.00    +0.002 A 
ATOM     12 Cl   UNL     1      -7.086 -10.380  34.181  1.00  0.00    -0.084 Cl
ENDBRANCH   5   6
BRANCH   5  13
ATOM     13  N   UNL     1      -9.745 -10.091  32.515  1.00  0.00    -0.282 NA
ATOM     14  C   UNL     1     -11.177  -9.751  32.732  1.00  0.00    +0.091 C 
ATOM     15  C   UNL     1      -9.633 -11.234  31.569  1.00  0.00    +0.122 C 
ATOM     16  C   UNL     1     -11.940 -10.879  33.462  1.00  0.00    +0.062 C 
ATOM     17  C   UNL     1     -10.527 -12.368  31.991  1.00  0.00    -0.020 A 
ATOM     18  C   UNL     1     -11.599 -12.189  32.839  1.00  0.00    +0.010 A 
ATOM     19  C   UNL     1     -10.429 -13.732  31.575  1.00  0.00    +0.017 A 
ATOM     20  S   UNL     1     -12.468 -13.615  33.138  1.00  0.00    -0.149 S 
ATOM     21  C   UNL     1     -11.420 -14.517  32.127  1.00  0.00    +0.065 A 
ENDBRANCH   5  13
ENDBRANCH   1   5
TORSDOF 4
ENDMDL
MODEL 9
REMARK VINA RESULT:    -7.109      3.175      5.682
REMARK INTER + INTRA:          -8.742
REMARK INTER:                  -9.034
REMARK INTRA:                   0.292
REMARK UNBOUND:                 0.029
REMARK SMILES COC(=O)C(c1ccccc1Cl)N1CCc2sccc2C1
REMARK SMILES IDX 3 1 4 2 2 3 1 4 5 5 6 6 7 7 11 8 8 9 10 10 9 11 12 12 13 13
REMARK SMILES IDX 14 14 21 15 15 16 20 17 16 18 19 19 17 20 18 21
REMARK H PARENT
ROOT
ATOM      1  C   UNL     1     -10.347 -10.619  32.539  1.00  0.00    +0.327 C 
ATOM      2  O   UNL     1     -10.974 -10.867  31.511  1.00  0.00    -0.250 OA
ENDROOT
BRANCH   1   3
ATOM      3  O   UNL     1     -10.854 -10.766  33.793  1.00  0.00    -0.468 OA
ATOM      4  C   UNL     1     -11.943 -11.682  33.890  1.00  0.00    +0.282 C 
ENDBRANCH   1   3
BRANCH   1   5
ATOM      5  C   UNL     1      -8.877 -10.132  32.524  1.00  0.00    +0.200 C 
BRANCH   5   6
ATOM      6  C   UNL     1      -8.845  -8.654  32.126  1.00  0.00    -0.001 A 
ATOM      7  C   UNL     1      -9.786  -8.217  31.169  1.00  0.00    +0.007 A 
ATOM      8  C   UNL     1      -7.925  -7.712  32.621  1.00  0.00    +0.046 A 
ATOM      9  C   UNL     1      -9.818  -6.890  30.733  1.00  0.00    +0.000 A 
ATOM     10  C   UNL     1      -7.964  -6.382  32.180  1.00  0.00    +0.021 A 
ATOM     11  C   UNL     1      -8.907  -5.972  31.241  1.00  0.00    +0.002 A 
ATOM     12 Cl   UNL     1      -6.714  -8.094  33.791  1.00  0.00    -0.084 Cl
ENDBRANCH   5   6
BRANCH   5  13
ATOM     13  N   UNL     1      -7.937 -11.025  31.769  1.00  0.00    -0.282 NA
ATOM     14  C   UNL     1      -6.601 -11.088  32.418  1.00  0.00    +0.091 C 
ATOM     15  C   UNL     1      -8.509 -12.394  31.648  1.00  0.00    +0.122 C 
ATOM     16  C   UNL     1      -5.561 -11.820  31.541  1.00  0.00    +0.062 C 
ATOM     17  C   UNL     1      -7.514 -13.336  31.026  1.00  0.00    -0.020 A 
ATOM     18  C   UNL     1      -6.160 -13.075  31.006  1.00  0.00    +0.010 A 
ATOM     19  C   UNL     1      -7.799 -14.598  30.419  1.00  0.00    +0.017 A 
ATOM     20  S   UNL     1      -5.248 -14.305  30.277  1.00  0.00    -0.149 S 
ATOM     21  C   UNL     1      -6.657 -15.227  29.967  1.00  0.00    +0.065 A 
ENDBRANCH   5  13
ENDBRANCH   1   5
TORSDOF 4
ENDMDL
