MODEL 1
REMARK VINA RESULT:    -7.176      0.000      0.000
REMARK INTER + INTRA:         -10.218
REMARK INTER:                  -9.484
REMARK INTRA:                  -0.735
REMARK UNBOUND:                -0.735
REMARK SMILES O=C(O)COc1ccc(Cl)cc1C(=O)c1cccs1
REMARK SMILES IDX 5 1 6 2 9 3 11 4 8 5 12 6 7 7 10 8 13 9 14 10 15 11 16 12
REMARK SMILES IDX 19 13 17 14 18 15 4 16 2 17 1 18 3 19
REMARK H PARENT 3 20
ROOT
ATOM      1  O   UNL     1       4.423  25.854  -3.942  1.00  0.00    -0.481 OA
ENDROOT
BRANCH   1   2
ATOM      2  C   UNL     1       5.577  25.258  -4.375  1.00  0.00    +0.131 A 
ATOM      3  C   UNL     1       7.882  24.029  -5.347  1.00  0.00    +0.042 A 
ATOM      4  C   UNL     1       7.273  23.527  -4.198  1.00  0.00    +0.036 A 
ATOM      5  C   UNL     1       7.338  25.125  -6.020  1.00  0.00    +0.024 A 
ATOM      6  C   UNL     1       6.106  24.137  -3.727  1.00  0.00    +0.067 A 
ATOM      7  C   UNL     1       6.179  25.737  -5.537  1.00  0.00    +0.049 A 
ATOM      8 Cl   UNL     1       9.312  23.285  -5.946  1.00  0.00    -0.084 Cl
BRANCH   6   9
ATOM      9  C   UNL     1       5.458  23.606  -2.514  1.00  0.00    +0.206 C 
ATOM     10  O   UNL     1       4.308  23.190  -2.656  1.00  0.00    -0.288 OA
BRANCH   9  11
ATOM     11  C   UNL     1       6.164  23.607  -1.241  1.00  0.00    +0.075 A 
ATOM     12  C   UNL     1       6.148  24.619  -0.298  1.00  0.00    +0.024 A 
ATOM     13  S   UNL     1       7.136  22.297  -0.718  1.00  0.00    -0.140 S 
ATOM     14  C   UNL     1       6.938  24.317   0.848  1.00  0.00    +0.012 A 
ATOM     15  C   UNL     1       7.534  23.081   0.748  1.00  0.00    +0.065 A 
ENDBRANCH   9  11
ENDBRANCH   6   9
ENDBRANCH   1   2
BRANCH   1  16
ATOM     16  C   UNL     1       3.474  25.991  -5.005  1.00  0.00    +0.351 C 
BRANCH  16  17
ATOM     17  C   UNL     1       2.060  25.666  -4.556  1.00  0.00    +0.341 C 
ATOM     18  O   UNL     1       1.011  26.004  -5.082  1.00  0.00    -0.248 OA
BRANCH  17  19
ATOM     19  O   UNL     1       2.040  24.921  -3.429  1.00  0.00    -0.479 OA
ATOM     20  H   UNL     1       2.797  24.307  -3.536  1.00  0.00    +0.296 HD
ENDBRANCH  17  19
ENDBRANCH  16  17
ENDBRANCH   1  16
TORSDOF 6
ENDMDL
MODEL 2
REMARK VINA RESULT:    -6.808      3.261      4.695
REMARK INTER + INTRA:          -9.732
REMARK INTER:                  -8.814
REMARK INTRA:                  -0.918
REMARK UNBOUND:                -0.735
REMARK SMILES O=C(O)COc1ccc(Cl)cc1C(=O)c1cccs1
REMARK SMILES IDX 5 1 6 2 9 3 11 4 8 5 12 6 7 7 10 8 13 9 14 10 15 11 16 12
REMARK SMILES IDX 19 13 17 14 18 15 4 16 2 17 1 18 3 19
REMARK H PARENT 3 20
ROOT
ATOM      1  O   UNL     1       5.816  26.864  -6.069  1.00  0.00    -0.481 OA
ENDROOT
BRANCH   1   2
ATOM      2  C   UNL     1       4.565  26.468  -5.680  1.00  0.00    +0.131 A 
ATOM      3  C   UNL     1       1.981  25.752  -4.920  1.00  0.00    +0.042 A 
ATOM      4  C   UNL     1       3.004  25.722  -3.975  1.00  0.00    +0.036 A 
ATOM      5  C   UNL     1       2.236  26.154  -6.233  1.00  0.00    +0.024 A 
ATOM      6  C   UNL     1       4.295  26.100  -4.359  1.00  0.00    +0.067 A 
ATOM      7  C   UNL     1       3.530  26.519  -6.613  1.00  0.00    +0.049 A 
ATOM      8 Cl   UNL     1       0.386  25.300  -4.462  1.00  0.00    -0.084 Cl
BRANCH   6   9
ATOM      9  C   UNL     1       5.378  26.072  -3.359  1.00  0.00    +0.206 C 
ATOM     10  O   UNL     1       5.861  27.163  -3.058  1.00  0.00    -0.288 OA
BRANCH   9  11
ATOM     11  C   UNL     1       5.831  24.807  -2.799  1.00  0.00    +0.075 A 
ATOM     12  C   UNL     1       6.545  23.827  -3.467  1.00  0.00    +0.024 A 
ATOM     13  S   UNL     1       5.540  24.353  -1.174  1.00  0.00    -0.140 S 
ATOM     14  C   UNL     1       6.844  22.705  -2.641  1.00  0.00    +0.012 A 
ATOM     15  C   UNL     1       6.352  22.862  -1.366  1.00  0.00    +0.065 A 
ENDBRANCH   9  11
ENDBRANCH   6   9
ENDBRANCH   1   2
BRANCH   1  16
ATOM     16  C   UNL     1       5.803  28.191  -6.607  1.00  0.00    +0.351 C 
BRANCH  16  17
ATOM     17  C   UNL     1       6.745  29.121  -5.863  1.00  0.00    +0.341 C 
ATOM     18  O   UNL     1       7.853  29.498  -6.208  1.00  0.00    -0.248 OA
BRANCH  17  19
ATOM     19  O   UNL     1       6.232  29.529  -4.681  1.00  0.00    -0.479 OA
ATOM     20  H   UNL     1       5.930  28.700  -4.253  1.00  0.00    +0.296 HD
ENDBRANCH  17  19
ENDBRANCH  16  17
ENDBRANCH   1  16
TORSDOF 6
ENDMDL
MODEL 3
REMARK VINA RESULT:    -6.007      3.476      5.100
REMARK INTER + INTRA:          -8.673
REMARK INTER:                  -8.006
REMARK INTRA:                  -0.667
REMARK UNBOUND:                -0.735
REMARK SMILES O=C(O)COc1ccc(Cl)cc1C(=O)c1cccs1
REMARK SMILES IDX 5 1 6 2 9 3 11 4 8 5 12 6 7 7 10 8 13 9 14 10 15 11 16 12
REMARK SMILES IDX 19 13 17 14 18 15 4 16 2 17 1 18 3 19
REMARK H PARENT 3 20
ROOT
ATOM      1  O   UNL     1       8.398  23.506  -5.600  1.00  0.00    -0.481 OA
ENDROOT
BRANCH   1   2
ATOM      2  C   UNL     1       7.721  24.687  -5.743  1.00  0.00    +0.131 A 
ATOM      3  C   UNL     1       6.425  27.141  -5.998  1.00  0.00    +0.042 A 
ATOM      4  C   UNL     1       5.833  26.131  -5.243  1.00  0.00    +0.036 A 
ATOM      5  C   UNL     1       7.665  26.940  -6.609  1.00  0.00    +0.024 A 
ATOM      6  C   UNL     1       6.497  24.908  -5.104  1.00  0.00    +0.067 A 
ATOM      7  C   UNL     1       8.318  25.712  -6.476  1.00  0.00    +0.049 A 
ATOM      8 Cl   UNL     1       5.626  28.655  -6.171  1.00  0.00    -0.084 Cl
BRANCH   6   9
ATOM      9  C   UNL     1       5.874  23.840  -4.303  1.00  0.00    +0.206 C 
ATOM     10  O   UNL     1       5.108  23.089  -4.909  1.00  0.00    -0.288 OA
BRANCH   9  11
ATOM     11  C   UNL     1       6.159  23.723  -2.880  1.00  0.00    +0.075 A 
ATOM     12  C   UNL     1       7.059  22.850  -2.296  1.00  0.00    +0.024 A 
ATOM     13  S   UNL     1       5.396  24.699  -1.697  1.00  0.00    -0.140 S 
ATOM     14  C   UNL     1       7.114  22.982  -0.879  1.00  0.00    +0.012 A 
ATOM     15  C   UNL     1       6.256  23.955  -0.422  1.00  0.00    +0.065 A 
ENDBRANCH   9  11
ENDBRANCH   6   9
ENDBRANCH   1   2
BRANCH   1  16
ATOM     16  C   UNL     1       9.264  23.260  -6.713  1.00  0.00    +0.351 C 
BRANCH  16  17
ATOM     17  C   UNL     1      10.665  22.872  -6.274  1.00  0.00    +0.341 C 
ATOM     18  O   UNL     1      11.008  21.875  -5.658  1.00  0.00    -0.248 OA
BRANCH  17  19
ATOM     19  O   UNL     1      11.587  23.793  -6.633  1.00  0.00    -0.479 OA
ATOM     20  H   UNL     1      11.482  24.506  -5.968  1.00  0.00    +0.296 HD
ENDBRANCH  17  19
ENDBRANCH  16  17
ENDBRANCH   1  16
TORSDOF 6
ENDMDL
MODEL 4
REMARK VINA RESULT:    -5.811      2.896      4.310
REMARK INTER + INTRA:          -8.415
REMARK INTER:                  -7.745
REMARK INTRA:                  -0.670
REMARK UNBOUND:                -0.735
REMARK SMILES O=C(O)COc1ccc(Cl)cc1C(=O)c1cccs1
REMARK SMILES IDX 5 1 6 2 9 3 11 4 8 5 12 6 7 7 10 8 13 9 14 10 15 11 16 12
REMARK SMILES IDX 19 13 17 14 18 15 4 16 2 17 1 18 3 19
REMARK H PARENT 3 20
ROOT
ATOM      1  O   UNL     1       6.877  24.681  -4.541  1.00  0.00    -0.481 OA
ENDROOT
BRANCH   1   2
ATOM      2  C   UNL     1       5.542  24.978  -4.549  1.00  0.00    +0.131 A 
ATOM      3  C   UNL     1       2.845  25.681  -4.543  1.00  0.00    +0.042 A 
ATOM      4  C   UNL     1       3.283  24.646  -3.719  1.00  0.00    +0.036 A 
ATOM      5  C   UNL     1       3.745  26.376  -5.353  1.00  0.00    +0.024 A 
ATOM      6  C   UNL     1       4.641  24.311  -3.714  1.00  0.00    +0.067 A 
ATOM      7  C   UNL     1       5.098  26.029  -5.352  1.00  0.00    +0.049 A 
ATOM      8 Cl   UNL     1       1.179  26.112  -4.554  1.00  0.00    -0.084 Cl
BRANCH   6   9
ATOM      9  C   UNL     1       5.107  23.219  -2.841  1.00  0.00    +0.206 C 
ATOM     10  O   UNL     1       4.817  22.078  -3.203  1.00  0.00    -0.288 OA
BRANCH   9  11
ATOM     11  C   UNL     1       5.849  23.514  -1.623  1.00  0.00    +0.075 A 
ATOM     12  C   UNL     1       5.643  24.593  -0.782  1.00  0.00    +0.024 A 
ATOM     13  S   UNL     1       7.115  22.517  -1.043  1.00  0.00    -0.140 S 
ATOM     14  C   UNL     1       6.530  24.600   0.332  1.00  0.00    +0.012 A 
ATOM     15  C   UNL     1       7.386  23.524   0.311  1.00  0.00    +0.065 A 
ENDBRANCH   9  11
ENDBRANCH   6   9
ENDBRANCH   1   2
BRANCH   1  16
ATOM     16  C   UNL     1       7.259  23.947  -5.710  1.00  0.00    +0.351 C 
BRANCH  16  17
ATOM     17  C   UNL     1       8.580  24.428  -6.283  1.00  0.00    +0.341 C 
ATOM     18  O   UNL     1       9.649  23.838  -6.298  1.00  0.00    -0.248 OA
BRANCH  17  19
ATOM     19  O   UNL     1       8.487  25.668  -6.812  1.00  0.00    -0.479 OA
ATOM     20  H   UNL     1       7.644  25.651  -7.313  1.00  0.00    +0.296 HD
ENDBRANCH  17  19
ENDBRANCH  16  17
ENDBRANCH   1  16
TORSDOF 6
ENDMDL
MODEL 5
REMARK VINA RESULT:    -5.629      2.678      4.397
REMARK INTER + INTRA:          -8.173
REMARK INTER:                  -7.305
REMARK INTRA:                  -0.868
REMARK UNBOUND:                -0.735
REMARK SMILES O=C(O)COc1ccc(Cl)cc1C(=O)c1cccs1
REMARK SMILES IDX 5 1 6 2 9 3 11 4 8 5 12 6 7 7 10 8 13 9 14 10 15 11 16 12
REMARK SMILES IDX 19 13 17 14 18 15 4 16 2 17 1 18 3 19
REMARK H PARENT 3 20
ROOT
ATOM      1  O   UNL     1       3.428  23.912  -3.790  1.00  0.00    -0.481 OA
ENDROOT
BRANCH   1   2
ATOM      2  C   UNL     1       4.434  23.698  -2.887  1.00  0.00    +0.131 A 
ATOM      3  C   UNL     1       6.432  23.321  -0.981  1.00  0.00    +0.042 A 
ATOM      4  C   UNL     1       6.770  23.830  -2.233  1.00  0.00    +0.036 A 
ATOM      5  C   UNL     1       5.105  23.018  -0.670  1.00  0.00    +0.024 A 
ATOM      6  C   UNL     1       5.760  24.034  -3.178  1.00  0.00    +0.067 A 
ATOM      7  C   UNL     1       4.102  23.213  -1.622  1.00  0.00    +0.049 A 
ATOM      8 Cl   UNL     1       7.661  23.074   0.197  1.00  0.00    -0.084 Cl
BRANCH   6   9
ATOM      9  C   UNL     1       6.115  24.575  -4.502  1.00  0.00    +0.206 C 
ATOM     10  O   UNL     1       6.366  23.743  -5.375  1.00  0.00    -0.288 OA
BRANCH   9  11
ATOM     11  C   UNL     1       6.170  26.013  -4.720  1.00  0.00    +0.075 A 
ATOM     12  C   UNL     1       5.778  26.992  -3.823  1.00  0.00    +0.024 A 
ATOM     13  S   UNL     1       6.762  26.711  -6.168  1.00  0.00    -0.140 S 
ATOM     14  C   UNL     1       5.960  28.310  -4.331  1.00  0.00    +0.012 A 
ATOM     15  C   UNL     1       6.489  28.300  -5.601  1.00  0.00    +0.065 A 
ENDBRANCH   9  11
ENDBRANCH   6   9
ENDBRANCH   1   2
BRANCH   1  16
ATOM     16  C   UNL     1       2.632  25.046  -3.428  1.00  0.00    +0.351 C 
BRANCH  16  17
ATOM     17  C   UNL     1       2.019  25.727  -4.640  1.00  0.00    +0.341 C 
ATOM     18  O   UNL     1       0.906  26.217  -4.741  1.00  0.00    -0.248 OA
BRANCH  17  19
ATOM     19  O   UNL     1       2.861  25.742  -5.697  1.00  0.00    -0.479 OA
ATOM     20  H   UNL     1       3.609  26.301  -5.398  1.00  0.00    +0.296 HD
ENDBRANCH  17  19
ENDBRANCH  16  17
ENDBRANCH   1  16
TORSDOF 6
ENDMDL
MODEL 6
REMARK VINA RESULT:    -5.593      3.114      4.670
REMARK INTER + INTRA:          -8.126
REMARK INTER:                  -7.720
REMARK INTRA:                  -0.406
REMARK UNBOUND:                -0.735
REMARK SMILES O=C(O)COc1ccc(Cl)cc1C(=O)c1cccs1
REMARK SMILES IDX 5 1 6 2 9 3 11 4 8 5 12 6 7 7 10 8 13 9 14 10 15 11 16 12
REMARK SMILES IDX 19 13 17 14 18 15 4 16 2 17 1 18 3 19
REMARK H PARENT 3 20
ROOT
ATOM      1  O   UNL     1       6.250  25.849  -5.682  1.00  0.00    -0.481 OA
ENDROOT
BRANCH   1   2
ATOM      2  C   UNL     1       4.916  25.759  -5.390  1.00  0.00    +0.131 A 
ATOM      3  C   UNL     1       2.184  25.661  -4.850  1.00  0.00    +0.042 A 
ATOM      4  C   UNL     1       3.088  25.685  -3.790  1.00  0.00    +0.036 A 
ATOM      5  C   UNL     1       2.633  25.703  -6.171  1.00  0.00    +0.024 A 
ATOM      6  C   UNL     1       4.457  25.753  -4.068  1.00  0.00    +0.067 A 
ATOM      7  C   UNL     1       4.002  25.759  -6.442  1.00  0.00    +0.049 A 
ATOM      8 Cl   UNL     1       0.496  25.588  -4.525  1.00  0.00    -0.084 Cl
BRANCH   6   9
ATOM      9  C   UNL     1       5.416  25.783  -2.950  1.00  0.00    +0.206 C 
ATOM     10  O   UNL     1       5.867  26.890  -2.655  1.00  0.00    -0.288 OA
BRANCH   9  11
ATOM     11  C   UNL     1       5.795  24.552  -2.271  1.00  0.00    +0.075 A 
ATOM     12  C   UNL     1       6.270  23.400  -2.872  1.00  0.00    +0.024 A 
ATOM     13  S   UNL     1       5.710  24.365  -0.570  1.00  0.00    -0.140 S 
ATOM     14  C   UNL     1       6.557  22.367  -1.934  1.00  0.00    +0.012 A 
ATOM     15  C   UNL     1       6.294  22.761  -0.642  1.00  0.00    +0.065 A 
ENDBRANCH   9  11
ENDBRANCH   6   9
ENDBRANCH   1   2
BRANCH   1  16
ATOM     16  C   UNL     1       6.829  24.556  -5.890  1.00  0.00    +0.351 C 
BRANCH  16  17
ATOM     17  C   UNL     1       8.335  24.625  -6.077  1.00  0.00    +0.341 C 
ATOM     18  O   UNL     1       8.974  25.457  -6.702  1.00  0.00    -0.248 OA
BRANCH  17  19
ATOM     19  O   UNL     1       8.974  23.606  -5.462  1.00  0.00    -0.479 OA
ATOM     20  H   UNL     1       8.889  23.813  -4.508  1.00  0.00    +0.296 HD
ENDBRANCH  17  19
ENDBRANCH  16  17
ENDBRANCH   1  16
TORSDOF 6
ENDMDL
MODEL 7
REMARK VINA RESULT:    -5.256      3.762      6.085
REMARK INTER + INTRA:          -7.680
REMARK INTER:                  -7.125
REMARK INTRA:                  -0.556
REMARK UNBOUND:                -0.735
REMARK SMILES O=C(O)COc1ccc(Cl)cc1C(=O)c1cccs1
REMARK SMILES IDX 5 1 6 2 9 3 11 4 8 5 12 6 7 7 10 8 13 9 14 10 15 11 16 12
REMARK SMILES IDX 19 13 17 14 18 15 4 16 2 17 1 18 3 19
REMARK H PARENT 3 20
ROOT
ATOM      1  O   UNL     1       4.947  27.721  -4.987  1.00  0.00    -0.481 OA
ENDROOT
BRANCH   1   2
ATOM      2  C   UNL     1       4.869  26.622  -4.177  1.00  0.00    +0.131 A 
ATOM      3  C   UNL     1       4.809  24.367  -2.540  1.00  0.00    +0.042 A 
ATOM      4  C   UNL     1       3.966  24.429  -3.648  1.00  0.00    +0.036 A 
ATOM      5  C   UNL     1       5.690  25.412  -2.256  1.00  0.00    +0.024 A 
ATOM      6  C   UNL     1       4.014  25.555  -4.475  1.00  0.00    +0.067 A 
ATOM      7  C   UNL     1       5.725  26.539  -3.080  1.00  0.00    +0.049 A 
ATOM      8 Cl   UNL     1       4.769  22.984  -1.517  1.00  0.00    -0.084 Cl
BRANCH   6   9
ATOM      9  C   UNL     1       3.126  25.622  -5.650  1.00  0.00    +0.206 C 
ATOM     10  O   UNL     1       3.503  25.003  -6.646  1.00  0.00    -0.288 OA
BRANCH   9  11
ATOM     11  C   UNL     1       1.895  26.396  -5.600  1.00  0.00    +0.075 A 
ATOM     12  C   UNL     1       0.938  26.347  -4.602  1.00  0.00    +0.024 A 
ATOM     13  S   UNL     1       1.459  27.525  -6.812  1.00  0.00    -0.140 S 
ATOM     14  C   UNL     1      -0.153  27.231  -4.840  1.00  0.00    +0.012 A 
ATOM     15  C   UNL     1       0.004  27.934  -6.012  1.00  0.00    +0.065 A 
ENDBRANCH   9  11
ENDBRANCH   6   9
ENDBRANCH   1   2
BRANCH   1  16
ATOM     16  C   UNL     1       5.936  27.550  -6.009  1.00  0.00    +0.351 C 
BRANCH  16  17
ATOM     17  C   UNL     1       6.715  28.827  -6.272  1.00  0.00    +0.341 C 
ATOM     18  O   UNL     1       7.820  28.939  -6.780  1.00  0.00    -0.248 OA
BRANCH  17  19
ATOM     19  O   UNL     1       6.049  29.927  -5.858  1.00  0.00    -0.479 OA
ATOM     20  H   UNL     1       6.045  29.850  -4.881  1.00  0.00    +0.296 HD
ENDBRANCH  17  19
ENDBRANCH  16  17
ENDBRANCH   1  16
TORSDOF 6
ENDMDL
MODEL 8
REMARK VINA RESULT:    -5.131     17.347     18.539
REMARK INTER + INTRA:          -7.516
REMARK INTER:                  -6.506
REMARK INTRA:                  -1.010
REMARK UNBOUND:                -0.735
REMARK SMILES O=C(O)COc1ccc(Cl)cc1C(=O)c1cccs1
REMARK SMILES IDX 5 1 6 2 9 3 11 4 8 5 12 6 7 7 10 8 13 9 14 10 15 11 16 12
REMARK SMILES IDX 19 13 17 14 18 15 4 16 2 17 1 18 3 19
REMARK H PARENT 3 20
ROOT
ATOM      1  O   UNL     1      14.420  30.027  12.375  1.00  0.00    -0.481 OA
ENDROOT
BRANCH   1   2
ATOM      2  C   UNL     1      15.022  30.841  11.454  1.00  0.00    +0.131 A 
ATOM      3  C   UNL     1      16.301  32.542   9.655  1.00  0.00    +0.042 A 
ATOM      4  C   UNL     1      14.910  32.541   9.722  1.00  0.00    +0.036 A 
ATOM      5  C   UNL     1      17.055  31.715  10.490  1.00  0.00    +0.024 A 
ATOM      6  C   UNL     1      14.275  31.699  10.640  1.00  0.00    +0.067 A 
ATOM      7  C   UNL     1      16.415  30.867  11.397  1.00  0.00    +0.049 A 
ATOM      8 Cl   UNL     1      17.099  33.579   8.538  1.00  0.00    -0.084 Cl
BRANCH   6   9
ATOM      9  C   UNL     1      12.803  31.699  10.715  1.00  0.00    +0.206 C 
ATOM     10  O   UNL     1      12.236  30.753  10.167  1.00  0.00    -0.288 OA
BRANCH   9  11
ATOM     11  C   UNL     1      12.099  32.779  11.391  1.00  0.00    +0.075 A 
ATOM     12  C   UNL     1      11.015  33.483  10.898  1.00  0.00    +0.024 A 
ATOM     13  S   UNL     1      12.530  33.333  12.954  1.00  0.00    -0.140 S 
ATOM     14  C   UNL     1      10.547  34.479  11.802  1.00  0.00    +0.012 A 
ATOM     15  C   UNL     1      11.286  34.505  12.962  1.00  0.00    +0.065 A 
ENDBRANCH   9  11
ENDBRANCH   6   9
ENDBRANCH   1   2
BRANCH   1  16
ATOM     16  C   UNL     1      14.834  28.665  12.220  1.00  0.00    +0.351 C 
BRANCH  16  17
ATOM     17  C   UNL     1      14.263  28.031  10.964  1.00  0.00    +0.341 C 
ATOM     18  O   UNL     1      14.875  27.524  10.037  1.00  0.00    -0.248 OA
BRANCH  17  19
ATOM     19  O   UNL     1      12.913  28.082  10.933  1.00  0.00    -0.479 OA
ATOM     20  H   UNL     1      12.639  27.141  10.934  1.00  0.00    +0.296 HD
ENDBRANCH  17  19
ENDBRANCH  16  17
ENDBRANCH   1  16
TORSDOF 6
ENDMDL
MODEL 9
REMARK VINA RESULT:    -4.817     17.762     19.077
REMARK INTER + INTRA:          -7.101
REMARK INTER:                  -6.105
REMARK INTRA:                  -0.995
REMARK UNBOUND:                -0.735
REMARK SMILES O=C(O)COc1ccc(Cl)cc1C(=O)c1cccs1
REMARK SMILES IDX 5 1 6 2 9 3 11 4 8 5 12 6 7 7 10 8 13 9 14 10 15 11 16 12
REMARK SMILES IDX 19 13 17 14 18 15 4 16 2 17 1 18 3 19
REMARK H PARENT 3 20
ROOT
ATOM      1  O   UNL     1      14.560  31.674   9.843  1.00  0.00    -0.481 OA
ENDROOT
BRANCH   1   2
ATOM      2  C   UNL     1      14.189  30.766  10.797  1.00  0.00    +0.131 A 
ATOM      3  C   UNL     1      13.375  28.870  12.670  1.00  0.00    +0.042 A 
ATOM      4  C   UNL     1      13.216  30.224  12.956  1.00  0.00    +0.036 A 
ATOM      5  C   UNL     1      13.918  28.458  11.451  1.00  0.00    +0.024 A 
ATOM      6  C   UNL     1      13.610  31.170  12.004  1.00  0.00    +0.067 A 
ATOM      7  C   UNL     1      14.321  29.408  10.509  1.00  0.00    +0.049 A 
ATOM      8 Cl   UNL     1      12.886  27.693  13.826  1.00  0.00    -0.084 Cl
BRANCH   6   9
ATOM      9  C   UNL     1      13.441  32.603  12.303  1.00  0.00    +0.206 C 
ATOM     10  O   UNL     1      14.434  33.182  12.743  1.00  0.00    -0.288 OA
BRANCH   9  11
ATOM     11  C   UNL     1      12.155  33.253  12.092  1.00  0.00    +0.075 A 
ATOM     12  C   UNL     1      11.404  33.222  10.930  1.00  0.00    +0.024 A 
ATOM     13  S   UNL     1      11.367  34.166  13.308  1.00  0.00    -0.140 S 
ATOM     14  C   UNL     1      10.188  33.954  11.041  1.00  0.00    +0.012 A 
ATOM     15  C   UNL     1      10.043  34.521  12.286  1.00  0.00    +0.065 A 
ENDBRANCH   9  11
ENDBRANCH   6   9
ENDBRANCH   1   2
BRANCH   1  16
ATOM     16  C   UNL     1      15.982  31.821   9.782  1.00  0.00    +0.351 C 
BRANCH  16  17
ATOM     17  C   UNL     1      16.403  33.268   9.591  1.00  0.00    +0.341 C 
ATOM     18  O   UNL     1      16.633  33.849   8.542  1.00  0.00    -0.248 OA
BRANCH  17  19
ATOM     19  O   UNL     1      16.529  33.922  10.766  1.00  0.00    -0.479 OA
ATOM     20  H   UNL     1      17.490  34.106  10.835  1.00  0.00    +0.296 HD
ENDBRANCH  17  19
ENDBRANCH  16  17
ENDBRANCH   1  16
TORSDOF 6
ENDMDL
