MODEL 1
REMARK VINA RESULT:    -6.969      0.000      0.000
REMARK INTER + INTRA:          -8.735
REMARK INTER:                  -8.598
REMARK INTRA:                  -0.137
REMARK UNBOUND:                -0.137
REMARK SMILES COC(=O)C(c1ccccc1Cl)N1CCc2sccc2C1
REMARK SMILES IDX 3 1 4 2 2 3 1 4 5 5 6 6 7 7 11 8 8 9 10 10 9 11 12 12 13 13
REMARK SMILES IDX 14 14 21 15 15 16 20 17 16 18 19 19 17 20 18 21
REMARK H PARENT
ROOT
ATOM      1  C   UNL     1       5.661  24.340  -3.087  1.00  0.00    +0.327 C 
ATOM      2  O   UNL     1       5.762  25.333  -2.367  1.00  0.00    -0.250 OA
ENDROOT
BRANCH   1   3
ATOM      3  O   UNL     1       5.809  23.063  -2.643  1.00  0.00    -0.468 OA
ATOM      4  C   UNL     1       7.101  22.760  -2.121  1.00  0.00    +0.282 C 
ENDBRANCH   1   3
BRANCH   1   5
ATOM      5  C   UNL     1       5.321  24.432  -4.595  1.00  0.00    +0.200 C 
BRANCH   5   6
ATOM      6  C   UNL     1       6.614  24.656  -5.384  1.00  0.00    -0.001 A 
ATOM      7  C   UNL     1       7.367  23.516  -5.739  1.00  0.00    +0.007 A 
ATOM      8  C   UNL     1       7.118  25.917  -5.751  1.00  0.00    +0.046 A 
ATOM      9  C   UNL     1       8.568  23.628  -6.444  1.00  0.00    +0.000 A 
ATOM     10  C   UNL     1       8.323  26.021  -6.460  1.00  0.00    +0.021 A 
ATOM     11  C   UNL     1       9.045  24.882  -6.806  1.00  0.00    +0.002 A 
ATOM     12 Cl   UNL     1       6.315  27.402  -5.388  1.00  0.00    -0.084 Cl
ENDBRANCH   5   6
BRANCH   5  13
ATOM     13  N   UNL     1       4.196  25.369  -4.919  1.00  0.00    -0.282 NA
ATOM     14  C   UNL     1       3.869  25.351  -6.370  1.00  0.00    +0.091 C 
ATOM     15  C   UNL     1       2.988  25.023  -4.122  1.00  0.00    +0.122 C 
ATOM     16  C   UNL     1       2.870  26.464  -6.756  1.00  0.00    +0.062 C 
ATOM     17  C   UNL     1       1.809  25.856  -4.546  1.00  0.00    -0.020 A 
ATOM     18  C   UNL     1       1.754  26.492  -5.769  1.00  0.00    +0.010 A 
ATOM     19  C   UNL     1       0.611  26.083  -3.801  1.00  0.00    +0.017 A 
ATOM     20  S   UNL     1       0.309  27.343  -6.022  1.00  0.00    -0.149 S 
ATOM     21  C   UNL     1      -0.286  26.876  -4.485  1.00  0.00    +0.065 A 
ENDBRANCH   5  13
ENDBRANCH   1   5
TORSDOF 4
ENDMDL
MODEL 2
REMARK VINA RESULT:    -6.528      3.135      6.020
REMARK INTER + INTRA:          -8.191
REMARK INTER:                  -9.051
REMARK INTRA:                   0.860
REMARK UNBOUND:                -0.137
REMARK SMILES COC(=O)C(c1ccccc1Cl)N1CCc2sccc2C1
REMARK SMILES IDX 3 1 4 2 2 3 1 4 5 5 6 6 7 7 11 8 8 9 10 10 9 11 12 12 13 13
REMARK SMILES IDX 14 14 21 15 15 16 20 17 16 18 19 19 17 20 18 21
REMARK H PARENT
ROOT
ATOM      1  C   UNL     1       5.898  26.195  -4.987  1.00  0.00    +0.327 C 
ATOM      2  O   UNL     1       6.620  26.277  -5.978  1.00  0.00    -0.250 OA
ENDROOT
BRANCH   1   3
ATOM      3  O   UNL     1       5.738  27.196  -4.079  1.00  0.00    -0.468 OA
ATOM      4  C   UNL     1       6.121  28.488  -4.545  1.00  0.00    +0.282 C 
ENDBRANCH   1   3
BRANCH   1   5
ATOM      5  C   UNL     1       5.054  24.936  -4.669  1.00  0.00    +0.200 C 
BRANCH   5   6
ATOM      6  C   UNL     1       3.572  25.322  -4.646  1.00  0.00    -0.001 A 
ATOM      7  C   UNL     1       2.757  24.721  -3.662  1.00  0.00    +0.007 A 
ATOM      8  C   UNL     1       2.962  26.206  -5.554  1.00  0.00    +0.046 A 
ATOM      9  C   UNL     1       1.391  25.000  -3.579  1.00  0.00    +0.000 A 
ATOM     10  C   UNL     1       1.591  26.483  -5.463  1.00  0.00    +0.021 A 
ATOM     11  C   UNL     1       0.808  25.883  -4.479  1.00  0.00    +0.002 A 
ATOM     12 Cl   UNL     1       3.823  27.016  -6.812  1.00  0.00    -0.084 Cl
ENDBRANCH   5   6
BRANCH   5  13
ATOM     13  N   UNL     1       5.535  24.152  -3.485  1.00  0.00    -0.282 NA
ATOM     14  C   UNL     1       6.856  23.520  -3.746  1.00  0.00    +0.091 C 
ATOM     15  C   UNL     1       5.619  25.027  -2.284  1.00  0.00    +0.122 C 
ATOM     16  C   UNL     1       7.262  22.534  -2.628  1.00  0.00    +0.062 C 
ATOM     17  C   UNL     1       6.243  24.292  -1.128  1.00  0.00    -0.020 A 
ATOM     18  C   UNL     1       7.017  23.164  -1.300  1.00  0.00    +0.010 A 
ATOM     19  C   UNL     1       6.160  24.648   0.253  1.00  0.00    +0.017 A 
ATOM     20  S   UNL     1       7.629  22.540   0.153  1.00  0.00    -0.149 S 
ATOM     21  C   UNL     1       6.867  23.778   1.058  1.00  0.00    +0.065 A 
ENDBRANCH   5  13
ENDBRANCH   1   5
TORSDOF 4
ENDMDL
MODEL 3
REMARK VINA RESULT:    -6.441      3.021      5.017
REMARK INTER + INTRA:          -8.084
REMARK INTER:                  -8.596
REMARK INTRA:                   0.512
REMARK UNBOUND:                -0.137
REMARK SMILES COC(=O)C(c1ccccc1Cl)N1CCc2sccc2C1
REMARK SMILES IDX 3 1 4 2 2 3 1 4 5 5 6 6 7 7 11 8 8 9 10 10 9 11 12 12 13 13
REMARK SMILES IDX 14 14 21 15 15 16 20 17 16 18 19 19 17 20 18 21
REMARK H PARENT
ROOT
ATOM      1  C   UNL     1       3.392  25.763  -5.068  1.00  0.00    +0.327 C 
ATOM      2  O   UNL     1       3.424  25.722  -6.297  1.00  0.00    -0.250 OA
ENDROOT
BRANCH   1   3
ATOM      3  O   UNL     1       2.260  25.597  -4.332  1.00  0.00    -0.468 OA
ATOM      4  C   UNL     1       1.080  26.134  -4.926  1.00  0.00    +0.282 C 
ENDBRANCH   1   3
BRANCH   1   5
ATOM      5  C   UNL     1       4.660  25.981  -4.206  1.00  0.00    +0.200 C 
BRANCH   5   6
ATOM      6  C   UNL     1       5.865  26.172  -5.131  1.00  0.00    -0.001 A 
ATOM      7  C   UNL     1       6.645  25.034  -5.430  1.00  0.00    +0.007 A 
ATOM      8  C   UNL     1       6.267  27.405  -5.676  1.00  0.00    +0.046 A 
ATOM      9  C   UNL     1       7.772  25.119  -6.250  1.00  0.00    +0.000 A 
ATOM     10  C   UNL     1       7.398  27.483  -6.500  1.00  0.00    +0.021 A 
ATOM     11  C   UNL     1       8.148  26.345  -6.787  1.00  0.00    +0.002 A 
ATOM     12 Cl   UNL     1       5.419  28.884  -5.402  1.00  0.00    -0.084 Cl
ENDBRANCH   5   6
BRANCH   5  13
ATOM     13  N   UNL     1       4.843  24.974  -3.109  1.00  0.00    -0.282 NA
ATOM     14  C   UNL     1       5.325  23.670  -3.637  1.00  0.00    +0.091 C 
ATOM     15  C   UNL     1       5.793  25.491  -2.086  1.00  0.00    +0.122 C 
ATOM     16  C   UNL     1       5.308  22.563  -2.560  1.00  0.00    +0.062 C 
ATOM     17  C   UNL     1       6.101  24.434  -1.060  1.00  0.00    -0.020 A 
ATOM     18  C   UNL     1       5.900  23.091  -1.298  1.00  0.00    +0.010 A 
ATOM     19  C   UNL     1       6.652  24.644   0.241  1.00  0.00    +0.017 A 
ATOM     20  S   UNL     1       6.353  22.101   0.002  1.00  0.00    -0.149 S 
ATOM     21  C   UNL     1       6.837  23.460   0.925  1.00  0.00    +0.065 A 
ENDBRANCH   5  13
ENDBRANCH   1   5
TORSDOF 4
ENDMDL
MODEL 4
REMARK VINA RESULT:    -5.932     19.234     20.584
REMARK INTER + INTRA:          -7.455
REMARK INTER:                  -6.961
REMARK INTRA:                  -0.494
REMARK UNBOUND:                -0.137
REMARK SMILES COC(=O)C(c1ccccc1Cl)N1CCc2sccc2C1
REMARK SMILES IDX 3 1 4 2 2 3 1 4 5 5 6 6 7 7 11 8 8 9 10 10 9 11 12 12 13 13
REMARK SMILES IDX 14 14 21 15 15 16 20 17 16 18 19 19 17 20 18 21
REMARK H PARENT
ROOT
ATOM      1  C   UNL     1      13.079  30.017  11.980  1.00  0.00    +0.327 C 
ATOM      2  O   UNL     1      12.506  29.508  11.019  1.00  0.00    -0.250 OA
ENDROOT
BRANCH   1   3
ATOM      3  O   UNL     1      13.235  29.402  13.184  1.00  0.00    -0.468 OA
ATOM      4  C   UNL     1      12.230  28.439  13.494  1.00  0.00    +0.282 C 
ENDBRANCH   1   3
BRANCH   1   5
ATOM      5  C   UNL     1      13.725  31.424  11.920  1.00  0.00    +0.200 C 
BRANCH   5   6
ATOM      6  C   UNL     1      12.620  32.482  11.983  1.00  0.00    -0.001 A 
ATOM      7  C   UNL     1      11.898  32.741  10.797  1.00  0.00    +0.007 A 
ATOM      8  C   UNL     1      12.297  33.234  13.127  1.00  0.00    +0.046 A 
ATOM      9  C   UNL     1      10.885  33.703  10.758  1.00  0.00    +0.000 A 
ATOM     10  C   UNL     1      11.279  34.196  13.080  1.00  0.00    +0.021 A 
ATOM     11  C   UNL     1      10.575  34.430  11.901  1.00  0.00    +0.002 A 
ATOM     12 Cl   UNL     1      13.091  33.035  14.647  1.00  0.00    -0.084 Cl
ENDBRANCH   5   6
BRANCH   5  13
ATOM     13  N   UNL     1      14.724  31.599  10.815  1.00  0.00    -0.282 NA
ATOM     14  C   UNL     1      15.450  32.892  10.934  1.00  0.00    +0.091 C 
ATOM     15  C   UNL     1      15.694  30.470  10.811  1.00  0.00    +0.122 C 
ATOM     16  C   UNL     1      16.319  33.188   9.691  1.00  0.00    +0.062 C 
ATOM     17  C   UNL     1      16.790  30.709   9.808  1.00  0.00    -0.020 A 
ATOM     18  C   UNL     1      17.085  31.965   9.321  1.00  0.00    +0.010 A 
ATOM     19  C   UNL     1      17.670  29.728   9.256  1.00  0.00    +0.017 A 
ATOM     20  S   UNL     1      18.381  31.974   8.226  1.00  0.00    -0.149 S 
ATOM     21  C   UNL     1      18.581  30.281   8.379  1.00  0.00    +0.065 A 
ENDBRANCH   5  13
ENDBRANCH   1   5
TORSDOF 4
ENDMDL
MODEL 5
REMARK VINA RESULT:    -5.863      1.808      2.186
REMARK INTER + INTRA:          -7.371
REMARK INTER:                  -8.608
REMARK INTRA:                   1.238
REMARK UNBOUND:                -0.137
REMARK SMILES COC(=O)C(c1ccccc1Cl)N1CCc2sccc2C1
REMARK SMILES IDX 3 1 4 2 2 3 1 4 5 5 6 6 7 7 11 8 8 9 10 10 9 11 12 12 13 13
REMARK SMILES IDX 14 14 21 15 15 16 20 17 16 18 19 19 17 20 18 21
REMARK H PARENT
ROOT
ATOM      1  C   UNL     1       4.997  23.968  -2.128  1.00  0.00    +0.327 C 
ATOM      2  O   UNL     1       4.410  23.128  -1.448  1.00  0.00    -0.250 OA
ENDROOT
BRANCH   1   3
ATOM      3  O   UNL     1       5.736  24.984  -1.608  1.00  0.00    -0.468 OA
ATOM      4  C   UNL     1       6.165  24.781  -0.263  1.00  0.00    +0.282 C 
ENDBRANCH   1   3
BRANCH   1   5
ATOM      5  C   UNL     1       4.984  23.946  -3.676  1.00  0.00    +0.200 C 
BRANCH   5   6
ATOM      6  C   UNL     1       6.426  23.893  -4.186  1.00  0.00    -0.001 A 
ATOM      7  C   UNL     1       6.741  24.653  -5.334  1.00  0.00    +0.007 A 
ATOM      8  C   UNL     1       7.450  23.117  -3.612  1.00  0.00    +0.046 A 
ATOM      9  C   UNL     1       8.026  24.649  -5.880  1.00  0.00    +0.000 A 
ATOM     10  C   UNL     1       8.738  23.120  -4.163  1.00  0.00    +0.021 A 
ATOM     11  C   UNL     1       9.027  23.884  -5.292  1.00  0.00    +0.002 A 
ATOM     12 Cl   UNL     1       7.221  22.136  -2.210  1.00  0.00    -0.084 Cl
ENDBRANCH   5   6
BRANCH   5  13
ATOM     13  N   UNL     1       4.117  24.998  -4.302  1.00  0.00    -0.282 NA
ATOM     14  C   UNL     1       4.136  24.912  -5.787  1.00  0.00    +0.091 C 
ATOM     15  C   UNL     1       2.718  24.879  -3.805  1.00  0.00    +0.122 C 
ATOM     16  C   UNL     1       3.431  26.115  -6.450  1.00  0.00    +0.062 C 
ATOM     17  C   UNL     1       1.808  25.828  -4.537  1.00  0.00    -0.020 A 
ATOM     18  C   UNL     1       2.134  26.369  -5.763  1.00  0.00    +0.010 A 
ATOM     19  C   UNL     1       0.517  26.270  -4.112  1.00  0.00    +0.017 A 
ATOM     20  S   UNL     1       0.929  27.384  -6.392  1.00  0.00    -0.149 S 
ATOM     21  C   UNL     1      -0.069  27.121  -5.026  1.00  0.00    +0.065 A 
ENDBRANCH   5  13
ENDBRANCH   1   5
TORSDOF 4
ENDMDL
MODEL 6
REMARK VINA RESULT:    -5.606     19.312     20.671
REMARK INTER + INTRA:          -7.053
REMARK INTER:                  -6.635
REMARK INTRA:                  -0.418
REMARK UNBOUND:                -0.137
REMARK SMILES COC(=O)C(c1ccccc1Cl)N1CCc2sccc2C1
REMARK SMILES IDX 3 1 4 2 2 3 1 4 5 5 6 6 7 7 11 8 8 9 10 10 9 11 12 12 13 13
REMARK SMILES IDX 14 14 21 15 15 16 20 17 16 18 19 19 17 20 18 21
REMARK H PARENT
ROOT
ATOM      1  C   UNL     1      15.131  32.449  10.608  1.00  0.00    +0.327 C 
ATOM      2  O   UNL     1      15.792  32.969  11.504  1.00  0.00    -0.250 OA
ENDROOT
BRANCH   1   3
ATOM      3  O   UNL     1      15.451  32.523   9.287  1.00  0.00    -0.468 OA
ATOM      4  C   UNL     1      16.639  33.259   9.004  1.00  0.00    +0.282 C 
ENDBRANCH   1   3
BRANCH   1   5
ATOM      5  C   UNL     1      13.856  31.614  10.886  1.00  0.00    +0.200 C 
BRANCH   5   6
ATOM      6  C   UNL     1      12.747  32.546  11.379  1.00  0.00    -0.001 A 
ATOM      7  C   UNL     1      11.766  32.945  10.445  1.00  0.00    +0.007 A 
ATOM      8  C   UNL     1      12.656  33.058  12.686  1.00  0.00    +0.046 A 
ATOM      9  C   UNL     1      10.728  33.808  10.803  1.00  0.00    +0.000 A 
ATOM     10  C   UNL     1      11.610  33.923  13.039  1.00  0.00    +0.021 A 
ATOM     11  C   UNL     1      10.649  34.296  12.102  1.00  0.00    +0.002 A 
ATOM     12 Cl   UNL     1      13.778  32.666  13.939  1.00  0.00    -0.084 Cl
ENDBRANCH   5   6
BRANCH   5  13
ATOM     13  N   UNL     1      14.089  30.389  11.721  1.00  0.00    -0.282 NA
ATOM     14  C   UNL     1      12.848  29.582  11.867  1.00  0.00    +0.091 C 
ATOM     15  C   UNL     1      15.170  29.556  11.126  1.00  0.00    +0.122 C 
ATOM     16  C   UNL     1      13.012  28.444  12.898  1.00  0.00    +0.062 C 
ATOM     17  C   UNL     1      15.310  28.254  11.867  1.00  0.00    -0.020 A 
ATOM     18  C   UNL     1      14.303  27.740  12.656  1.00  0.00    +0.010 A 
ATOM     19  C   UNL     1      16.437  27.376  11.844  1.00  0.00    +0.017 A 
ATOM     20  S   UNL     1      14.693  26.246  13.358  1.00  0.00    -0.149 S 
ATOM     21  C   UNL     1      16.236  26.249  12.615  1.00  0.00    +0.065 A 
ENDBRANCH   5  13
ENDBRANCH   1   5
TORSDOF 4
ENDMDL
MODEL 7
REMARK VINA RESULT:    -5.514      3.196      5.672
REMARK INTER + INTRA:          -6.941
REMARK INTER:                  -7.983
REMARK INTRA:                   1.043
REMARK UNBOUND:                -0.137
REMARK SMILES COC(=O)C(c1ccccc1Cl)N1CCc2sccc2C1
REMARK SMILES IDX 3 1 4 2 2 3 1 4 5 5 6 6 7 7 11 8 8 9 10 10 9 11 12 12 13 13
REMARK SMILES IDX 14 14 21 15 15 16 20 17 16 18 19 19 17 20 18 21
REMARK H PARENT
ROOT
ATOM      1  C   UNL     1       3.910  25.341  -4.189  1.00  0.00    +0.327 C 
ATOM      2  O   UNL     1       3.163  24.601  -3.552  1.00  0.00    -0.250 OA
ENDROOT
BRANCH   1   3
ATOM      3  O   UNL     1       3.789  25.577  -5.524  1.00  0.00    -0.468 OA
ATOM      4  C   UNL     1       2.547  26.159  -5.914  1.00  0.00    +0.282 C 
ENDBRANCH   1   3
BRANCH   1   5
ATOM      5  C   UNL     1       5.073  26.124  -3.530  1.00  0.00    +0.200 C 
BRANCH   5   6
ATOM      6  C   UNL     1       5.882  26.829  -4.622  1.00  0.00    -0.001 A 
ATOM      7  C   UNL     1       5.823  28.239  -4.669  1.00  0.00    +0.007 A 
ATOM      8  C   UNL     1       6.651  26.170  -5.598  1.00  0.00    +0.046 A 
ATOM      9  C   UNL     1       6.515  28.964  -5.643  1.00  0.00    +0.000 A 
ATOM     10  C   UNL     1       7.344  26.904  -6.571  1.00  0.00    +0.021 A 
ATOM     11  C   UNL     1       7.277  28.295  -6.593  1.00  0.00    +0.002 A 
ATOM     12 Cl   UNL     1       6.820  24.453  -5.673  1.00  0.00    -0.084 Cl
ENDBRANCH   5   6
BRANCH   5  13
ATOM     13  N   UNL     1       5.876  25.326  -2.546  1.00  0.00    -0.282 NA
ATOM     14  C   UNL     1       5.215  25.275  -1.214  1.00  0.00    +0.091 C 
ATOM     15  C   UNL     1       6.096  23.945  -3.056  1.00  0.00    +0.122 C 
ATOM     16  C   UNL     1       6.126  24.649  -0.135  1.00  0.00    +0.062 C 
ATOM     17  C   UNL     1       6.768  23.091  -2.016  1.00  0.00    -0.020 A 
ATOM     18  C   UNL     1       6.752  23.410  -0.674  1.00  0.00    +0.010 A 
ATOM     19  C   UNL     1       7.463  21.863  -2.240  1.00  0.00    +0.017 A 
ATOM     20  S   UNL     1       7.553  22.273   0.297  1.00  0.00    -0.149 S 
ATOM     21  C   UNL     1       7.942  21.315  -1.068  1.00  0.00    +0.065 A 
ENDBRANCH   5  13
ENDBRANCH   1   5
TORSDOF 4
ENDMDL
MODEL 8
REMARK VINA RESULT:    -5.265     19.264     20.803
REMARK INTER + INTRA:          -6.633
REMARK INTER:                  -6.199
REMARK INTRA:                  -0.434
REMARK UNBOUND:                -0.137
REMARK SMILES COC(=O)C(c1ccccc1Cl)N1CCc2sccc2C1
REMARK SMILES IDX 3 1 4 2 2 3 1 4 5 5 6 6 7 7 11 8 8 9 10 10 9 11 12 12 13 13
REMARK SMILES IDX 14 14 21 15 15 16 20 17 16 18 19 19 17 20 18 21
REMARK H PARENT
ROOT
ATOM      1  C   UNL     1      13.790  31.945  10.275  1.00  0.00    +0.327 C 
ATOM      2  O   UNL     1      13.415  31.772   9.117  1.00  0.00    -0.250 OA
ENDROOT
BRANCH   1   3
ATOM      3  O   UNL     1      14.899  32.655  10.616  1.00  0.00    -0.468 OA
ATOM      4  C   UNL     1      15.893  32.731   9.596  1.00  0.00    +0.282 C 
ENDBRANCH   1   3
BRANCH   1   5
ATOM      5  C   UNL     1      13.015  31.392  11.496  1.00  0.00    +0.200 C 
BRANCH   5   6
ATOM      6  C   UNL     1      12.726  32.541  12.466  1.00  0.00    -0.001 A 
ATOM      7  C   UNL     1      13.418  32.544  13.697  1.00  0.00    +0.007 A 
ATOM      8  C   UNL     1      11.800  33.572  12.231  1.00  0.00    +0.046 A 
ATOM      9  C   UNL     1      13.204  33.542  14.650  1.00  0.00    +0.000 A 
ATOM     10  C   UNL     1      11.592  34.573  13.190  1.00  0.00    +0.021 A 
ATOM     11  C   UNL     1      12.291  34.559  14.395  1.00  0.00    +0.002 A 
ATOM     12 Cl   UNL     1      10.878  33.705  10.777  1.00  0.00    -0.084 Cl
ENDBRANCH   5   6
BRANCH   5  13
ATOM     13  N   UNL     1      13.623  30.166  12.111  1.00  0.00    -0.282 NA
ATOM     14  C   UNL     1      12.581  29.243  12.637  1.00  0.00    +0.091 C 
ATOM     15  C   UNL     1      14.474  29.456  11.117  1.00  0.00    +0.122 C 
ATOM     16  C   UNL     1      13.189  28.089  13.464  1.00  0.00    +0.062 C 
ATOM     17  C   UNL     1      14.967  28.148  11.672  1.00  0.00    -0.020 A 
ATOM     18  C   UNL     1      14.353  27.516  12.733  1.00  0.00    +0.010 A 
ATOM     19  C   UNL     1      16.072  27.379  11.191  1.00  0.00    +0.017 A 
ATOM     20  S   UNL     1      15.080  26.041  13.150  1.00  0.00    -0.149 S 
ATOM     21  C   UNL     1      16.245  26.212  11.907  1.00  0.00    +0.065 A 
ENDBRANCH   5  13
ENDBRANCH   1   5
TORSDOF 4
ENDMDL
MODEL 9
REMARK VINA RESULT:    -4.994     19.350     20.551
REMARK INTER + INTRA:          -6.298
REMARK INTER:                  -5.812
REMARK INTRA:                  -0.486
REMARK UNBOUND:                -0.137
REMARK SMILES COC(=O)C(c1ccccc1Cl)N1CCc2sccc2C1
REMARK SMILES IDX 3 1 4 2 2 3 1 4 5 5 6 6 7 7 11 8 8 9 10 10 9 11 12 12 13 13
REMARK SMILES IDX 14 14 21 15 15 16 20 17 16 18 19 19 17 20 18 21
REMARK H PARENT
ROOT
ATOM      1  C   UNL     1      13.842  32.038  10.434  1.00  0.00    +0.327 C 
ATOM      2  O   UNL     1      13.387  31.720   9.336  1.00  0.00    -0.250 OA
ENDROOT
BRANCH   1   3
ATOM      3  O   UNL     1      13.087  32.528  11.454  1.00  0.00    -0.468 OA
ATOM      4  C   UNL     1      11.795  32.991  11.069  1.00  0.00    +0.282 C 
ENDBRANCH   1   3
BRANCH   1   5
ATOM      5  C   UNL     1      15.340  31.885  10.794  1.00  0.00    +0.200 C 
BRANCH   5   6
ATOM      6  C   UNL     1      16.105  33.102  10.267  1.00  0.00    -0.001 A 
ATOM      7  C   UNL     1      16.341  33.172   8.877  1.00  0.00    +0.007 A 
ATOM      8  C   UNL     1      16.616  34.136  11.073  1.00  0.00    +0.046 A 
ATOM      9  C   UNL     1      17.047  34.237   8.311  1.00  0.00    +0.000 A 
ATOM     10  C   UNL     1      17.322  35.202  10.498  1.00  0.00    +0.021 A 
ATOM     11  C   UNL     1      17.536  35.253   9.123  1.00  0.00    +0.002 A 
ATOM     12 Cl   UNL     1      16.412  34.191  12.787  1.00  0.00    -0.084 Cl
ENDBRANCH   5   6
BRANCH   5  13
ATOM     13  N   UNL     1      15.928  30.551  10.442  1.00  0.00    -0.282 NA
ATOM     14  C   UNL     1      17.367  30.473  10.812  1.00  0.00    +0.091 C 
ATOM     15  C   UNL     1      15.171  29.459  11.113  1.00  0.00    +0.122 C 
ATOM     16  C   UNL     1      18.041  29.197  10.260  1.00  0.00    +0.062 C 
ATOM     17  C   UNL     1      15.841  28.130  10.892  1.00  0.00    -0.020 A 
ATOM     18  C   UNL     1      17.166  28.021  10.526  1.00  0.00    +0.010 A 
ATOM     19  C   UNL     1      15.248  26.839  11.048  1.00  0.00    +0.017 A 
ATOM     20  S   UNL     1      17.691  26.415  10.369  1.00  0.00    -0.149 S 
ATOM     21  C   UNL     1      16.142  25.820  10.792  1.00  0.00    +0.065 A 
ENDBRANCH   5  13
ENDBRANCH   1   5
TORSDOF 4
ENDMDL
