MODEL 1
REMARK VINA RESULT:    -9.807      0.000      0.000
REMARK INTER + INTRA:         -15.851
REMARK INTER:                 -14.393
REMARK INTRA:                  -1.458
REMARK UNBOUND:                -1.458
REMARK SMILES O=C(c1ccc(OCCN2CCCCC2)cc1)c1c(-c2ccc(O)cc2)sc2cc(O)ccc12
REMARK SMILES IDX 3 1 4 2 5 3 6 4 16 5 17 6 2 7 1 8 18 9 19 10 34 11 27 12
REMARK SMILES IDX 28 13 33 14 29 15 32 16 30 17 20 18 21 19 26 20 22 21 25 22
REMARK SMILES IDX 23 23 24 24 31 26 7 28 8 29 9 30 10 31 11 32 15 33 12 34
REMARK SMILES IDX 14 35 13 36
REMARK H PARENT 24 25 31 27
ROOT
ATOM      1  C   UNL     1      -6.146 -10.688  31.720  1.00  0.00    +0.023 A 
ATOM      2  C   UNL     1      -6.379  -9.891  30.592  1.00  0.00    +0.016 A 
ATOM      3  C   UNL     1      -6.468  -8.501  30.712  1.00  0.00    +0.047 A 
ATOM      4  C   UNL     1      -6.326  -7.900  31.962  1.00  0.00    +0.119 A 
ATOM      5  C   UNL     1      -6.134  -8.697  33.093  1.00  0.00    +0.047 A 
ATOM      6  C   UNL     1      -6.042 -10.086  32.979  1.00  0.00    +0.016 A 
ENDROOT
BRANCH   1   7
ATOM      7  C   UNL     1      -6.058 -12.166  31.543  1.00  0.00    +0.195 C 
ATOM      8  O   UNL     1      -4.957 -12.708  31.572  1.00  0.00    -0.289 OA
BRANCH   7   9
ATOM      9  C   UNL     1      -7.284 -12.932  31.318  1.00  0.00    +0.049 A 
ATOM     10  C   UNL     1      -7.350 -14.078  30.538  1.00  0.00    +0.047 A 
ATOM     11  C   UNL     1      -8.580 -12.558  31.845  1.00  0.00    +0.005 A 
ATOM     12  S   UNL     1      -8.924 -14.743  30.521  1.00  0.00    -0.134 S 
ATOM     13  C   UNL     1      -9.565 -13.482  31.492  1.00  0.00    +0.039 A 
ATOM     14  C   UNL     1      -8.969 -11.450  32.645  1.00  0.00    +0.014 A 
ATOM     15  C   UNL     1     -10.901 -13.338  31.913  1.00  0.00    +0.065 A 
ATOM     16  C   UNL     1     -10.294 -11.297  33.064  1.00  0.00    +0.047 A 
ATOM     17  C   UNL     1     -11.240 -12.238  32.696  1.00  0.00    +0.117 A 
BRANCH  10  18
ATOM     18  C   UNL     1      -6.302 -14.725  29.741  1.00  0.00    -0.007 A 
ATOM     19  C   UNL     1      -5.378 -15.580  30.362  1.00  0.00    +0.013 A 
ATOM     20  C   UNL     1      -6.218 -14.525  28.356  1.00  0.00    +0.013 A 
ATOM     21  C   UNL     1      -4.388 -16.223  29.614  1.00  0.00    +0.047 A 
ATOM     22  C   UNL     1      -5.230 -15.168  27.608  1.00  0.00    +0.047 A 
ATOM     23  C   UNL     1      -4.324 -16.009  28.241  1.00  0.00    +0.115 A 
BRANCH  23  24
ATOM     24  O   UNL     1      -3.375 -16.616  27.473  1.00  0.00    -0.508 OA
ATOM     25  H   UNL     1      -3.710 -17.485  27.198  1.00  0.00    +0.293 HD
ENDBRANCH  23  24
ENDBRANCH  10  18
BRANCH  17  26
ATOM     26  O   UNL     1     -12.542 -12.123  33.087  1.00  0.00    -0.508 OA
ATOM     27  H   UNL     1     -13.063 -11.779  32.342  1.00  0.00    +0.293 HD
ENDBRANCH  17  26
ENDBRANCH   7   9
ENDBRANCH   1   7
BRANCH   4  28
ATOM     28  O   UNL     1      -6.408  -6.558  32.206  1.00  0.00    -0.492 OA
BRANCH  28  29
ATOM     29  C   UNL     1      -7.510  -5.851  31.631  1.00  0.00    +0.245 C 
BRANCH  29  30
ATOM     30  C   UNL     1      -8.857  -6.136  32.334  1.00  0.00    +0.126 C 
BRANCH  30  31
ATOM     31  N   UNL     1     -10.055  -6.007  31.481  1.00  0.00    -0.300 NA
ATOM     32  C   UNL     1     -10.016  -6.939  30.343  1.00  0.00    +0.084 C 
ATOM     33  C   UNL     1     -11.329  -6.123  32.202  1.00  0.00    +0.084 C 
ATOM     34  C   UNL     1     -10.289  -8.396  30.726  1.00  0.00    +0.016 C 
ATOM     35  C   UNL     1     -11.651  -7.546  32.663  1.00  0.00    +0.016 C 
ATOM     36  C   UNL     1     -11.599  -8.529  31.497  1.00  0.00    +0.003 C 
ENDBRANCH  30  31
ENDBRANCH  29  30
ENDBRANCH  28  29
ENDBRANCH   4  28
TORSDOF 9
ENDMDL
MODEL 2
REMARK VINA RESULT:    -9.451      3.038      5.618
REMARK INTER + INTRA:         -15.330
REMARK INTER:                 -14.850
REMARK INTRA:                  -0.479
REMARK UNBOUND:                -1.458
REMARK SMILES O=C(c1ccc(OCCN2CCCCC2)cc1)c1c(-c2ccc(O)cc2)sc2cc(O)ccc12
REMARK SMILES IDX 3 1 4 2 5 3 6 4 16 5 17 6 2 7 1 8 18 9 19 10 34 11 27 12
REMARK SMILES IDX 28 13 33 14 29 15 32 16 30 17 20 18 21 19 26 20 22 21 25 22
REMARK SMILES IDX 23 23 24 24 31 26 7 28 8 29 9 30 10 31 11 32 15 33 12 34
REMARK SMILES IDX 14 35 13 36
REMARK H PARENT 24 25 31 27
ROOT
ATOM      1  C   UNL     1      -8.192 -11.754  31.454  1.00  0.00    +0.023 A 
ATOM      2  C   UNL     1      -7.960 -11.021  32.625  1.00  0.00    +0.016 A 
ATOM      3  C   UNL     1      -6.654 -10.785  33.066  1.00  0.00    +0.047 A 
ATOM      4  C   UNL     1      -5.573 -11.282  32.339  1.00  0.00    +0.119 A 
ATOM      5  C   UNL     1      -5.805 -12.046  31.193  1.00  0.00    +0.047 A 
ATOM      6  C   UNL     1      -7.107 -12.285  30.747  1.00  0.00    +0.016 A 
ENDROOT
BRANCH   1   7
ATOM      7  C   UNL     1      -9.601 -11.980  31.022  1.00  0.00    +0.195 C 
ATOM      8  O   UNL     1      -9.820 -12.665  30.027  1.00  0.00    -0.289 OA
BRANCH   7   9
ATOM      9  C   UNL     1     -10.688 -11.364  31.783  1.00  0.00    +0.049 A 
ATOM     10  C   UNL     1     -11.663 -12.080  32.462  1.00  0.00    +0.047 A 
ATOM     11  C   UNL     1     -10.899  -9.934  31.879  1.00  0.00    +0.005 A 
ATOM     12  S   UNL     1     -12.756 -11.051  33.277  1.00  0.00    -0.134 S 
ATOM     13  C   UNL     1     -11.996  -9.629  32.688  1.00  0.00    +0.039 A 
ATOM     14  C   UNL     1     -10.175  -8.851  31.313  1.00  0.00    +0.014 A 
ATOM     15  C   UNL     1     -12.379  -8.299  32.946  1.00  0.00    +0.065 A 
ATOM     16  C   UNL     1     -10.551  -7.528  31.560  1.00  0.00    +0.047 A 
ATOM     17  C   UNL     1     -11.642  -7.268  32.370  1.00  0.00    +0.117 A 
BRANCH  10  18
ATOM     18  C   UNL     1     -11.880 -13.530  32.524  1.00  0.00    -0.007 A 
ATOM     19  C   UNL     1     -13.013 -14.040  33.176  1.00  0.00    +0.013 A 
ATOM     20  C   UNL     1     -10.984 -14.423  31.919  1.00  0.00    +0.013 A 
ATOM     21  C   UNL     1     -13.247 -15.417  33.225  1.00  0.00    +0.047 A 
ATOM     22  C   UNL     1     -11.218 -15.798  31.966  1.00  0.00    +0.047 A 
ATOM     23  C   UNL     1     -12.345 -16.284  32.618  1.00  0.00    +0.115 A 
BRANCH  23  24
ATOM     24  O   UNL     1     -12.534 -17.635  32.640  1.00  0.00    -0.508 OA
ATOM     25  H   UNL     1     -11.667 -18.069  32.595  1.00  0.00    +0.293 HD
ENDBRANCH  23  24
ENDBRANCH  10  18
BRANCH  17  26
ATOM     26  O   UNL     1     -12.038  -5.989  32.636  1.00  0.00    -0.508 OA
ATOM     27  H   UNL     1     -11.761  -5.417  31.902  1.00  0.00    +0.293 HD
ENDBRANCH  17  26
ENDBRANCH   7   9
ENDBRANCH   1   7
BRANCH   4  28
ATOM     28  O   UNL     1      -4.258 -11.129  32.677  1.00  0.00    -0.492 OA
BRANCH  28  29
ATOM     29  C   UNL     1      -3.620  -9.906  32.300  1.00  0.00    +0.245 C 
BRANCH  29  30
ATOM     30  C   UNL     1      -4.508  -8.994  31.425  1.00  0.00    +0.126 C 
BRANCH  30  31
ATOM     31  N   UNL     1      -4.505  -7.564  31.794  1.00  0.00    -0.300 NA
ATOM     32  C   UNL     1      -5.453  -6.790  30.978  1.00  0.00    +0.084 C 
ATOM     33  C   UNL     1      -4.720  -7.305  33.223  1.00  0.00    +0.084 C 
ATOM     34  C   UNL     1      -6.921  -7.014  31.353  1.00  0.00    +0.016 C 
ATOM     35  C   UNL     1      -6.156  -7.556  33.687  1.00  0.00    +0.016 C 
ATOM     36  C   UNL     1      -7.155  -6.773  32.841  1.00  0.00    +0.003 C 
ENDBRANCH  30  31
ENDBRANCH  29  30
ENDBRANCH  28  29
ENDBRANCH   4  28
TORSDOF 9
ENDMDL
MODEL 3
REMARK VINA RESULT:    -9.064      2.889      5.822
REMARK INTER + INTRA:         -14.762
REMARK INTER:                 -13.349
REMARK INTRA:                  -1.413
REMARK UNBOUND:                -1.458
REMARK SMILES O=C(c1ccc(OCCN2CCCCC2)cc1)c1c(-c2ccc(O)cc2)sc2cc(O)ccc12
REMARK SMILES IDX 3 1 4 2 5 3 6 4 16 5 17 6 2 7 1 8 18 9 19 10 34 11 27 12
REMARK SMILES IDX 28 13 33 14 29 15 32 16 30 17 20 18 21 19 26 20 22 21 25 22
REMARK SMILES IDX 23 23 24 24 31 26 7 28 8 29 9 30 10 31 11 32 15 33 12 34
REMARK SMILES IDX 14 35 13 36
REMARK H PARENT 24 25 31 27
ROOT
ATOM      1  C   UNL     1      -8.071 -12.276  31.197  1.00  0.00    +0.023 A 
ATOM      2  C   UNL     1      -8.143 -11.503  32.362  1.00  0.00    +0.016 A 
ATOM      3  C   UNL     1      -6.985 -10.951  32.920  1.00  0.00    +0.047 A 
ATOM      4  C   UNL     1      -5.749 -11.172  32.315  1.00  0.00    +0.119 A 
ATOM      5  C   UNL     1      -5.671 -11.976  31.176  1.00  0.00    +0.047 A 
ATOM      6  C   UNL     1      -6.824 -12.528  30.614  1.00  0.00    +0.016 A 
ENDROOT
BRANCH   1   7
ATOM      7  C   UNL     1      -9.332 -12.842  30.638  1.00  0.00    +0.195 C 
ATOM      8  O   UNL     1      -9.314 -13.363  29.526  1.00  0.00    -0.289 OA
BRANCH   7   9
ATOM      9  C   UNL     1     -10.565 -12.747  31.420  1.00  0.00    +0.049 A 
ATOM     10  C   UNL     1     -11.197 -11.551  31.730  1.00  0.00    +0.047 A 
ATOM     11  C   UNL     1     -11.244 -13.887  32.002  1.00  0.00    +0.005 A 
ATOM     12  S   UNL     1     -12.632 -11.804  32.622  1.00  0.00    -0.134 S 
ATOM     13  C   UNL     1     -12.406 -13.504  32.676  1.00  0.00    +0.039 A 
ATOM     14  C   UNL     1     -10.924 -15.270  31.972  1.00  0.00    +0.014 A 
ATOM     15  C   UNL     1     -13.244 -14.447  33.302  1.00  0.00    +0.065 A 
ATOM     16  C   UNL     1     -11.747 -16.213  32.594  1.00  0.00    +0.047 A 
ATOM     17  C   UNL     1     -12.892 -15.793  33.248  1.00  0.00    +0.117 A 
BRANCH  10  18
ATOM     18  C   UNL     1     -10.783 -10.175  31.435  1.00  0.00    -0.007 A 
ATOM     19  C   UNL     1     -10.440  -9.813  30.124  1.00  0.00    +0.013 A 
ATOM     20  C   UNL     1     -10.745  -9.199  32.441  1.00  0.00    +0.013 A 
ATOM     21  C   UNL     1     -10.066  -8.501  29.821  1.00  0.00    +0.047 A 
ATOM     22  C   UNL     1     -10.373  -7.888  32.139  1.00  0.00    +0.047 A 
ATOM     23  C   UNL     1     -10.035  -7.550  30.835  1.00  0.00    +0.115 A 
BRANCH  23  24
ATOM     24  O   UNL     1      -9.677  -6.257  30.584  1.00  0.00    -0.508 OA
ATOM     25  H   UNL     1      -8.986  -6.001  31.216  1.00  0.00    +0.293 HD
ENDBRANCH  23  24
ENDBRANCH  10  18
BRANCH  17  26
ATOM     26  O   UNL     1     -13.721 -16.683  33.866  1.00  0.00    -0.508 OA
ATOM     27  H   UNL     1     -13.181 -17.365  34.298  1.00  0.00    +0.293 HD
ENDBRANCH  17  26
ENDBRANCH   7   9
ENDBRANCH   1   7
BRANCH   4  28
ATOM     28  O   UNL     1      -4.552 -10.700  32.774  1.00  0.00    -0.492 OA
BRANCH  28  29
ATOM     29  C   UNL     1      -3.837  -9.790  31.933  1.00  0.00    +0.245 C 
BRANCH  29  30
ATOM     30  C   UNL     1      -4.683  -8.578  31.481  1.00  0.00    +0.126 C 
BRANCH  30  31
ATOM     31  N   UNL     1      -4.495  -7.345  32.272  1.00  0.00    -0.300 NA
ATOM     32  C   UNL     1      -5.073  -6.173  31.596  1.00  0.00    +0.084 C 
ATOM     33  C   UNL     1      -4.975  -7.433  33.657  1.00  0.00    +0.084 C 
ATOM     34  C   UNL     1      -6.603  -6.122  31.643  1.00  0.00    +0.016 C 
ATOM     35  C   UNL     1      -6.500  -7.438  33.784  1.00  0.00    +0.016 C 
ATOM     36  C   UNL     1      -7.117  -6.237  33.075  1.00  0.00    +0.003 C 
ENDBRANCH  30  31
ENDBRANCH  29  30
ENDBRANCH  28  29
ENDBRANCH   4  28
TORSDOF 9
ENDMDL
MODEL 4
REMARK VINA RESULT:    -8.387      2.337      3.998
REMARK INTER + INTRA:         -13.767
REMARK INTER:                 -11.377
REMARK INTRA:                  -2.390
REMARK UNBOUND:                -1.458
REMARK SMILES O=C(c1ccc(OCCN2CCCCC2)cc1)c1c(-c2ccc(O)cc2)sc2cc(O)ccc12
REMARK SMILES IDX 3 1 4 2 5 3 6 4 16 5 17 6 2 7 1 8 18 9 19 10 34 11 27 12
REMARK SMILES IDX 28 13 33 14 29 15 32 16 30 17 20 18 21 19 26 20 22 21 25 22
REMARK SMILES IDX 23 23 24 24 31 26 7 28 8 29 9 30 10 31 11 32 15 33 12 34
REMARK SMILES IDX 14 35 13 36
REMARK H PARENT 24 25 31 27
ROOT
ATOM      1  C   UNL     1      -9.277 -11.161  31.436  1.00  0.00    +0.023 A 
ATOM      2  C   UNL     1      -9.379  -9.792  31.162  1.00  0.00    +0.016 A 
ATOM      3  C   UNL     1      -8.679  -8.860  31.936  1.00  0.00    +0.047 A 
ATOM      4  C   UNL     1      -7.874  -9.295  32.988  1.00  0.00    +0.119 A 
ATOM      5  C   UNL     1      -7.804 -10.657  33.286  1.00  0.00    +0.047 A 
ATOM      6  C   UNL     1      -8.499 -11.592  32.516  1.00  0.00    +0.016 A 
ENDROOT
BRANCH   1   7
ATOM      7  C   UNL     1     -10.042 -12.117  30.583  1.00  0.00    +0.195 C 
ATOM      8  O   UNL     1     -10.507 -11.727  29.516  1.00  0.00    -0.289 OA
BRANCH   7   9
ATOM      9  C   UNL     1     -10.236 -13.490  31.048  1.00  0.00    +0.049 A 
ATOM     10  C   UNL     1      -9.342 -14.525  30.808  1.00  0.00    +0.047 A 
ATOM     11  C   UNL     1     -11.405 -13.941  31.774  1.00  0.00    +0.005 A 
ATOM     12  S   UNL     1      -9.857 -15.987  31.525  1.00  0.00    -0.134 S 
ATOM     13  C   UNL     1     -11.313 -15.293  32.110  1.00  0.00    +0.039 A 
ATOM     14  C   UNL     1     -12.567 -13.236  32.188  1.00  0.00    +0.014 A 
ATOM     15  C   UNL     1     -12.325 -15.946  32.840  1.00  0.00    +0.065 A 
ATOM     16  C   UNL     1     -13.578 -13.877  32.909  1.00  0.00    +0.047 A 
ATOM     17  C   UNL     1     -13.447 -15.218  33.226  1.00  0.00    +0.117 A 
BRANCH  10  18
ATOM     18  C   UNL     1      -8.103 -14.521  30.023  1.00  0.00    -0.007 A 
ATOM     19  C   UNL     1      -6.880 -14.236  30.648  1.00  0.00    +0.013 A 
ATOM     20  C   UNL     1      -8.112 -14.825  28.654  1.00  0.00    +0.013 A 
ATOM     21  C   UNL     1      -5.686 -14.252  29.920  1.00  0.00    +0.047 A 
ATOM     22  C   UNL     1      -6.920 -14.842  27.926  1.00  0.00    +0.047 A 
ATOM     23  C   UNL     1      -5.719 -14.555  28.563  1.00  0.00    +0.115 A 
BRANCH  23  24
ATOM     24  O   UNL     1      -4.579 -14.582  27.815  1.00  0.00    -0.508 OA
ATOM     25  H   UNL     1      -4.825 -14.534  26.877  1.00  0.00    +0.293 HD
ENDBRANCH  23  24
ENDBRANCH  10  18
BRANCH  17  26
ATOM     26  O   UNL     1     -14.412 -15.877  33.929  1.00  0.00    -0.508 OA
ATOM     27  H   UNL     1     -14.600 -16.721  33.486  1.00  0.00    +0.293 HD
ENDBRANCH  17  26
ENDBRANCH   7   9
ENDBRANCH   1   7
BRANCH   4  28
ATOM     28  O   UNL     1      -7.157  -8.482  33.819  1.00  0.00    -0.492 OA
BRANCH  28  29
ATOM     29  C   UNL     1      -5.823  -8.149  33.425  1.00  0.00    +0.245 C 
BRANCH  29  30
ATOM     30  C   UNL     1      -5.698  -7.784  31.929  1.00  0.00    +0.126 C 
BRANCH  30  31
ATOM     31  N   UNL     1      -4.499  -8.310  31.247  1.00  0.00    -0.300 NA
ATOM     32  C   UNL     1      -4.067  -9.595  31.821  1.00  0.00    +0.084 C 
ATOM     33  C   UNL     1      -4.623  -8.411  29.788  1.00  0.00    +0.084 C 
ATOM     34  C   UNL     1      -4.960 -10.777  31.435  1.00  0.00    +0.016 C 
ATOM     35  C   UNL     1      -5.543  -9.542  29.323  1.00  0.00    +0.016 C 
ATOM     36  C   UNL     1      -5.119 -10.880  29.921  1.00  0.00    +0.003 C 
ENDBRANCH  30  31
ENDBRANCH  29  30
ENDBRANCH  28  29
ENDBRANCH   4  28
TORSDOF 9
ENDMDL
MODEL 5
REMARK VINA RESULT:    -8.299      2.401      3.489
REMARK INTER + INTRA:         -13.639
REMARK INTER:                 -12.206
REMARK INTRA:                  -1.433
REMARK UNBOUND:                -1.458
REMARK SMILES O=C(c1ccc(OCCN2CCCCC2)cc1)c1c(-c2ccc(O)cc2)sc2cc(O)ccc12
REMARK SMILES IDX 3 1 4 2 5 3 6 4 16 5 17 6 2 7 1 8 18 9 19 10 34 11 27 12
REMARK SMILES IDX 28 13 33 14 29 15 32 16 30 17 20 18 21 19 26 20 22 21 25 22
REMARK SMILES IDX 23 23 24 24 31 26 7 28 8 29 9 30 10 31 11 32 15 33 12 34
REMARK SMILES IDX 14 35 13 36
REMARK H PARENT 24 25 31 27
ROOT
ATOM      1  C   UNL     1      -8.064 -11.650  31.361  1.00  0.00    +0.023 A 
ATOM      2  C   UNL     1      -6.988 -11.633  30.465  1.00  0.00    +0.016 A 
ATOM      3  C   UNL     1      -5.718 -11.228  30.890  1.00  0.00    +0.047 A 
ATOM      4  C   UNL     1      -5.520 -10.836  32.213  1.00  0.00    +0.119 A 
ATOM      5  C   UNL     1      -6.602 -10.814  33.096  1.00  0.00    +0.047 A 
ATOM      6  C   UNL     1      -7.871 -11.219  32.678  1.00  0.00    +0.016 A 
ENDROOT
BRANCH   1   7
ATOM      7  C   UNL     1      -9.399 -12.090  30.862  1.00  0.00    +0.195 C 
ATOM      8  O   UNL     1     -10.095 -11.298  30.233  1.00  0.00    -0.289 OA
BRANCH   7   9
ATOM      9  C   UNL     1      -9.856 -13.449  31.152  1.00  0.00    +0.049 A 
ATOM     10  C   UNL     1      -9.136 -14.594  30.837  1.00  0.00    +0.047 A 
ATOM     11  C   UNL     1     -11.133 -13.761  31.759  1.00  0.00    +0.005 A 
ATOM     12  S   UNL     1      -9.941 -16.011  31.349  1.00  0.00    -0.134 S 
ATOM     13  C   UNL     1     -11.296 -15.137  31.938  1.00  0.00    +0.039 A 
ATOM     14  C   UNL     1     -12.184 -12.910  32.194  1.00  0.00    +0.014 A 
ATOM     15  C   UNL     1     -12.453 -15.675  32.533  1.00  0.00    +0.065 A 
ATOM     16  C   UNL     1     -13.338 -13.436  32.782  1.00  0.00    +0.047 A 
ATOM     17  C   UNL     1     -13.459 -14.805  32.945  1.00  0.00    +0.117 A 
BRANCH  10  18
ATOM     18  C   UNL     1      -7.862 -14.725  30.122  1.00  0.00    -0.007 A 
ATOM     19  C   UNL     1      -6.671 -14.903  30.842  1.00  0.00    +0.013 A 
ATOM     20  C   UNL     1      -7.812 -14.702  28.720  1.00  0.00    +0.013 A 
ATOM     21  C   UNL     1      -5.452 -15.054  30.176  1.00  0.00    +0.047 A 
ATOM     22  C   UNL     1      -6.595 -14.854  28.055  1.00  0.00    +0.047 A 
ATOM     23  C   UNL     1      -5.426 -15.027  28.785  1.00  0.00    +0.115 A 
BRANCH  23  24
ATOM     24  O   UNL     1      -4.259 -15.172  28.094  1.00  0.00    -0.508 OA
ATOM     25  H   UNL     1      -4.419 -15.758  27.337  1.00  0.00    +0.293 HD
ENDBRANCH  23  24
ENDBRANCH  10  18
BRANCH  17  26
ATOM     26  O   UNL     1     -14.569 -15.355  33.516  1.00  0.00    -0.508 OA
ATOM     27  H   UNL     1     -14.293 -16.075  34.107  1.00  0.00    +0.293 HD
ENDBRANCH  17  26
ENDBRANCH   7   9
ENDBRANCH   1   7
BRANCH   4  28
ATOM     28  O   UNL     1      -4.334 -10.408  32.739  1.00  0.00    -0.492 OA
BRANCH  28  29
ATOM     29  C   UNL     1      -3.677  -9.320  32.083  1.00  0.00    +0.245 C 
BRANCH  29  30
ATOM     30  C   UNL     1      -4.655  -8.283  31.485  1.00  0.00    +0.126 C 
BRANCH  30  31
ATOM     31  N   UNL     1      -4.687  -6.976  32.171  1.00  0.00    -0.300 NA
ATOM     32  C   UNL     1      -5.450  -5.978  31.403  1.00  0.00    +0.084 C 
ATOM     33  C   UNL     1      -5.158  -7.030  33.560  1.00  0.00    +0.084 C 
ATOM     34  C   UNL     1      -6.966  -6.185  31.453  1.00  0.00    +0.016 C 
ATOM     35  C   UNL     1      -6.661  -7.284  33.695  1.00  0.00    +0.016 C 
ATOM     36  C   UNL     1      -7.467  -6.268  32.892  1.00  0.00    +0.003 C 
ENDBRANCH  30  31
ENDBRANCH  29  30
ENDBRANCH  28  29
ENDBRANCH   4  28
TORSDOF 9
ENDMDL
MODEL 6
REMARK VINA RESULT:    -8.180      2.843      6.495
REMARK INTER + INTRA:         -13.463
REMARK INTER:                 -12.534
REMARK INTRA:                  -0.930
REMARK UNBOUND:                -1.458
REMARK SMILES O=C(c1ccc(OCCN2CCCCC2)cc1)c1c(-c2ccc(O)cc2)sc2cc(O)ccc12
REMARK SMILES IDX 3 1 4 2 5 3 6 4 16 5 17 6 2 7 1 8 18 9 19 10 34 11 27 12
REMARK SMILES IDX 28 13 33 14 29 15 32 16 30 17 20 18 21 19 26 20 22 21 25 22
REMARK SMILES IDX 23 23 24 24 31 26 7 28 8 29 9 30 10 31 11 32 15 33 12 34
REMARK SMILES IDX 14 35 13 36
REMARK H PARENT 24 25 31 27
ROOT
ATOM      1  C   UNL     1      -8.988  -9.714  31.846  1.00  0.00    +0.023 A 
ATOM      2  C   UNL     1     -10.286  -9.539  31.349  1.00  0.00    +0.016 A 
ATOM      3  C   UNL     1     -11.387 -10.039  32.052  1.00  0.00    +0.047 A 
ATOM      4  C   UNL     1     -11.195 -10.718  33.254  1.00  0.00    +0.119 A 
ATOM      5  C   UNL     1      -9.899 -10.927  33.729  1.00  0.00    +0.047 A 
ATOM      6  C   UNL     1      -8.795 -10.429  33.033  1.00  0.00    +0.016 A 
ENDROOT
BRANCH   1   7
ATOM      7  C   UNL     1      -7.845  -9.163  31.062  1.00  0.00    +0.195 C 
ATOM      8  O   UNL     1      -8.074  -8.507  30.050  1.00  0.00    -0.289 OA
BRANCH   7   9
ATOM      9  C   UNL     1      -6.478  -9.434  31.507  1.00  0.00    +0.049 A 
ATOM     10  C   UNL     1      -5.853 -10.667  31.387  1.00  0.00    +0.047 A 
ATOM     11  C   UNL     1      -5.634  -8.460  32.167  1.00  0.00    +0.005 A 
ATOM     12  S   UNL     1      -4.248 -10.625  31.971  1.00  0.00    -0.134 S 
ATOM     13  C   UNL     1      -4.373  -8.985  32.460  1.00  0.00    +0.039 A 
ATOM     14  C   UNL     1      -5.885  -7.108  32.525  1.00  0.00    +0.014 A 
ATOM     15  C   UNL     1      -3.374  -8.211  33.082  1.00  0.00    +0.065 A 
ATOM     16  C   UNL     1      -4.901  -6.334  33.146  1.00  0.00    +0.047 A 
ATOM     17  C   UNL     1      -3.663  -6.891  33.416  1.00  0.00    +0.117 A 
BRANCH  10  18
ATOM     18  C   UNL     1      -6.388 -11.938  30.886  1.00  0.00    -0.007 A 
ATOM     19  C   UNL     1      -5.773 -12.577  29.799  1.00  0.00    +0.013 A 
ATOM     20  C   UNL     1      -7.497 -12.546  31.493  1.00  0.00    +0.013 A 
ATOM     21  C   UNL     1      -6.255 -13.800  29.325  1.00  0.00    +0.047 A 
ATOM     22  C   UNL     1      -7.979 -13.768  31.020  1.00  0.00    +0.047 A 
ATOM     23  C   UNL     1      -7.356 -14.384  29.942  1.00  0.00    +0.115 A 
BRANCH  23  24
ATOM     24  O   UNL     1      -7.860 -15.577  29.512  1.00  0.00    -0.508 OA
ATOM     25  H   UNL     1      -8.473 -15.406  28.779  1.00  0.00    +0.293 HD
ENDBRANCH  23  24
ENDBRANCH  10  18
BRANCH  17  26
ATOM     26  O   UNL     1      -2.677  -6.166  34.019  1.00  0.00    -0.508 OA
ATOM     27  H   UNL     1      -2.052  -5.862  33.340  1.00  0.00    +0.293 HD
ENDBRANCH  17  26
ENDBRANCH   7   9
ENDBRANCH   1   7
BRANCH   4  28
ATOM     28  O   UNL     1     -12.188 -11.262  34.019  1.00  0.00    -0.492 OA
BRANCH  28  29
ATOM     29  C   UNL     1     -13.350 -11.748  33.342  1.00  0.00    +0.245 C 
BRANCH  29  30
ATOM     30  C   UNL     1     -13.144 -13.130  32.684  1.00  0.00    +0.126 C 
BRANCH  30  31
ATOM     31  N   UNL     1     -12.025 -13.928  33.225  1.00  0.00    -0.300 NA
ATOM     32  C   UNL     1     -12.453 -14.768  34.355  1.00  0.00    +0.084 C 
ATOM     33  C   UNL     1     -11.311 -14.730  32.225  1.00  0.00    +0.084 C 
ATOM     34  C   UNL     1     -13.286 -15.985  33.942  1.00  0.00    +0.016 C 
ATOM     35  C   UNL     1     -12.102 -15.940  31.723  1.00  0.00    +0.016 C 
ATOM     36  C   UNL     1     -12.567 -16.815  32.883  1.00  0.00    +0.003 C 
ENDBRANCH  30  31
ENDBRANCH  29  30
ENDBRANCH  28  29
ENDBRANCH   4  28
TORSDOF 9
ENDMDL
MODEL 7
REMARK VINA RESULT:    -8.003      2.262      6.043
REMARK INTER + INTRA:         -13.204
REMARK INTER:                 -12.619
REMARK INTRA:                  -0.585
REMARK UNBOUND:                -1.458
REMARK SMILES O=C(c1ccc(OCCN2CCCCC2)cc1)c1c(-c2ccc(O)cc2)sc2cc(O)ccc12
REMARK SMILES IDX 3 1 4 2 5 3 6 4 16 5 17 6 2 7 1 8 18 9 19 10 34 11 27 12
REMARK SMILES IDX 28 13 33 14 29 15 32 16 30 17 20 18 21 19 26 20 22 21 25 22
REMARK SMILES IDX 23 23 24 24 31 26 7 28 8 29 9 30 10 31 11 32 15 33 12 34
REMARK SMILES IDX 14 35 13 36
REMARK H PARENT 24 25 31 27
ROOT
ATOM      1  C   UNL     1      -8.690 -10.420  32.473  1.00  0.00    +0.023 A 
ATOM      2  C   UNL     1      -9.154  -9.577  31.454  1.00  0.00    +0.016 A 
ATOM      3  C   UNL     1      -8.580  -8.316  31.262  1.00  0.00    +0.047 A 
ATOM      4  C   UNL     1      -7.540  -7.891  32.088  1.00  0.00    +0.119 A 
ATOM      5  C   UNL     1      -7.105  -8.715  33.128  1.00  0.00    +0.047 A 
ATOM      6  C   UNL     1      -7.673  -9.976  33.324  1.00  0.00    +0.016 A 
ENDROOT
BRANCH   1   7
ATOM      7  C   UNL     1      -9.332 -11.755  32.639  1.00  0.00    +0.195 C 
ATOM      8  O   UNL     1     -10.130 -11.926  33.557  1.00  0.00    -0.289 OA
BRANCH   7   9
ATOM      9  C   UNL     1      -8.982 -12.835  31.717  1.00  0.00    +0.049 A 
ATOM     10  C   UNL     1      -9.857 -13.842  31.333  1.00  0.00    +0.047 A 
ATOM     11  C   UNL     1      -7.667 -13.006  31.133  1.00  0.00    +0.005 A 
ATOM     12  S   UNL     1      -9.137 -14.917  30.217  1.00  0.00    -0.134 S 
ATOM     13  C   UNL     1      -7.625 -14.107  30.274  1.00  0.00    +0.039 A 
ATOM     14  C   UNL     1      -6.480 -12.242  31.287  1.00  0.00    +0.014 A 
ATOM     15  C   UNL     1      -6.454 -14.455  29.573  1.00  0.00    +0.065 A 
ATOM     16  C   UNL     1      -5.312 -12.583  30.598  1.00  0.00    +0.047 A 
ATOM     17  C   UNL     1      -5.312 -13.679  29.753  1.00  0.00    +0.117 A 
BRANCH  10  18
ATOM     18  C   UNL     1     -11.230 -14.102  31.777  1.00  0.00    -0.007 A 
ATOM     19  C   UNL     1     -11.588 -15.380  32.232  1.00  0.00    +0.013 A 
ATOM     20  C   UNL     1     -12.195 -13.085  31.779  1.00  0.00    +0.013 A 
ATOM     21  C   UNL     1     -12.886 -15.639  32.681  1.00  0.00    +0.047 A 
ATOM     22  C   UNL     1     -13.492 -13.342  32.229  1.00  0.00    +0.047 A 
ATOM     23  C   UNL     1     -13.827 -14.615  32.674  1.00  0.00    +0.115 A 
BRANCH  23  24
ATOM     24  O   UNL     1     -15.105 -14.823  33.104  1.00  0.00    -0.508 OA
ATOM     25  H   UNL     1     -15.189 -15.748  33.384  1.00  0.00    +0.293 HD
ENDBRANCH  23  24
ENDBRANCH  10  18
BRANCH  17  26
ATOM     26  O   UNL     1      -4.192 -14.042  29.064  1.00  0.00    -0.508 OA
ATOM     27  H   UNL     1      -4.181 -13.568  28.215  1.00  0.00    +0.293 HD
ENDBRANCH  17  26
ENDBRANCH   7   9
ENDBRANCH   1   7
BRANCH   4  28
ATOM     28  O   UNL     1      -6.914  -6.680  32.006  1.00  0.00    -0.492 OA
BRANCH  28  29
ATOM     29  C   UNL     1      -5.501  -6.684  31.782  1.00  0.00    +0.245 C 
BRANCH  29  30
ATOM     30  C   UNL     1      -5.094  -7.326  30.437  1.00  0.00    +0.126 C 
BRANCH  30  31
ATOM     31  N   UNL     1      -4.933  -8.794  30.460  1.00  0.00    -0.300 NA
ATOM     32  C   UNL     1      -5.560  -9.427  29.288  1.00  0.00    +0.084 C 
ATOM     33  C   UNL     1      -3.547  -9.251  30.615  1.00  0.00    +0.084 C 
ATOM     34  C   UNL     1      -4.778  -9.234  27.986  1.00  0.00    +0.016 C 
ATOM     35  C   UNL     1      -2.685  -9.046  29.368  1.00  0.00    +0.016 C 
ATOM     36  C   UNL     1      -3.328  -9.683  28.140  1.00  0.00    +0.003 C 
ENDBRANCH  30  31
ENDBRANCH  29  30
ENDBRANCH  28  29
ENDBRANCH   4  28
TORSDOF 9
ENDMDL
MODEL 8
REMARK VINA RESULT:    -7.898      1.628      5.620
REMARK INTER + INTRA:         -13.049
REMARK INTER:                 -11.738
REMARK INTRA:                  -1.311
REMARK UNBOUND:                -1.458
REMARK SMILES O=C(c1ccc(OCCN2CCCCC2)cc1)c1c(-c2ccc(O)cc2)sc2cc(O)ccc12
REMARK SMILES IDX 3 1 4 2 5 3 6 4 16 5 17 6 2 7 1 8 18 9 19 10 34 11 27 12
REMARK SMILES IDX 28 13 33 14 29 15 32 16 30 17 20 18 21 19 26 20 22 21 25 22
REMARK SMILES IDX 23 23 24 24 31 26 7 28 8 29 9 30 10 31 11 32 15 33 12 34
REMARK SMILES IDX 14 35 13 36
REMARK H PARENT 24 25 31 27
ROOT
ATOM      1  C   UNL     1      -7.691 -11.244  31.556  1.00  0.00    +0.023 A 
ATOM      2  C   UNL     1      -7.763 -10.263  30.559  1.00  0.00    +0.016 A 
ATOM      3  C   UNL     1      -8.574  -9.136  30.731  1.00  0.00    +0.047 A 
ATOM      4  C   UNL     1      -9.317  -8.986  31.901  1.00  0.00    +0.119 A 
ATOM      5  C   UNL     1      -9.276  -9.983  32.877  1.00  0.00    +0.047 A 
ATOM      6  C   UNL     1      -8.467 -11.110  32.712  1.00  0.00    +0.016 A 
ENDROOT
BRANCH   1   7
ATOM      7  C   UNL     1      -6.812 -12.427  31.328  1.00  0.00    +0.195 C 
ATOM      8  O   UNL     1      -5.788 -12.549  31.993  1.00  0.00    -0.289 OA
BRANCH   7   9
ATOM      9  C   UNL     1      -7.183 -13.404  30.304  1.00  0.00    +0.049 A 
ATOM     10  C   UNL     1      -8.485 -13.819  30.061  1.00  0.00    +0.047 A 
ATOM     11  C   UNL     1      -6.229 -14.088  29.455  1.00  0.00    +0.005 A 
ATOM     12  S   UNL     1      -8.566 -14.937  28.772  1.00  0.00    -0.134 S 
ATOM     13  C   UNL     1      -6.863 -14.947  28.555  1.00  0.00    +0.039 A 
ATOM     14  C   UNL     1      -4.812 -13.999  29.396  1.00  0.00    +0.014 A 
ATOM     15  C   UNL     1      -6.137 -15.701  27.613  1.00  0.00    +0.065 A 
ATOM     16  C   UNL     1      -4.083 -14.747  28.467  1.00  0.00    +0.047 A 
ATOM     17  C   UNL     1      -4.750 -15.585  27.590  1.00  0.00    +0.117 A 
BRANCH  10  18
ATOM     18  C   UNL     1      -9.722 -13.464  30.766  1.00  0.00    -0.007 A 
ATOM     19  C   UNL     1     -10.493 -12.380  30.321  1.00  0.00    +0.013 A 
ATOM     20  C   UNL     1     -10.166 -14.207  31.869  1.00  0.00    +0.013 A 
ATOM     21  C   UNL     1     -11.687 -12.042  30.966  1.00  0.00    +0.047 A 
ATOM     22  C   UNL     1     -11.358 -13.872  32.513  1.00  0.00    +0.047 A 
ATOM     23  C   UNL     1     -12.108 -12.793  32.058  1.00  0.00    +0.115 A 
BRANCH  23  24
ATOM     24  O   UNL     1     -13.266 -12.500  32.717  1.00  0.00    -0.508 OA
ATOM     25  H   UNL     1     -14.014 -12.762  32.156  1.00  0.00    +0.293 HD
ENDBRANCH  23  24
ENDBRANCH  10  18
BRANCH  17  26
ATOM     26  O   UNL     1      -4.073 -16.329  26.669  1.00  0.00    -0.508 OA
ATOM     27  H   UNL     1      -4.648 -16.470  25.898  1.00  0.00    +0.293 HD
ENDBRANCH  17  26
ENDBRANCH   7   9
ENDBRANCH   1   7
BRANCH   4  28
ATOM     28  O   UNL     1     -10.152  -7.940  32.175  1.00  0.00    -0.492 OA
BRANCH  28  29
ATOM     29  C   UNL     1      -9.562  -6.645  32.312  1.00  0.00    +0.245 C 
BRANCH  29  30
ATOM     30  C   UNL     1      -8.300  -6.450  31.443  1.00  0.00    +0.126 C 
BRANCH  30  31
ATOM     31  N   UNL     1      -7.141  -5.851  32.134  1.00  0.00    -0.300 NA
ATOM     32  C   UNL     1      -6.947  -6.431  33.473  1.00  0.00    +0.084 C 
ATOM     33  C   UNL     1      -5.890  -5.888  31.368  1.00  0.00    +0.084 C 
ATOM     34  C   UNL     1      -6.365  -7.847  33.456  1.00  0.00    +0.016 C 
ATOM     35  C   UNL     1      -5.270  -7.283  31.263  1.00  0.00    +0.016 C 
ATOM     36  C   UNL     1      -5.076  -7.907  32.641  1.00  0.00    +0.003 C 
ENDBRANCH  30  31
ENDBRANCH  29  30
ENDBRANCH  28  29
ENDBRANCH   4  28
TORSDOF 9
ENDMDL
