MODEL 1
REMARK VINA RESULT:    -6.182      0.000      0.000
REMARK INTER + INTRA:          -9.094
REMARK INTER:                 -10.158
REMARK INTRA:                   1.064
REMARK UNBOUND:                 1.064
REMARK SMILES CC(=O)OC1C(=O)N(CCN(C)C)c2ccccc2SC1c1ccccc1
REMARK SMILES IDX 19 1 18 2 17 3 16 4 15 5 14 6 20 7 21 8 5 9 4 11 2 12 3 13
REMARK SMILES IDX 1 14 22 15 23 16 27 17 24 18 26 19 25 20 8 21 9 22 10 23
REMARK SMILES IDX 11 24 12 25 13 26 6 27 7 28
REMARK H PARENT
REMARK Flexibility Score:   44.900
ROOT
ATOM      1  C   UNL     1       5.456  27.597  -4.421  1.00  0.00    +0.032 A 
ATOM      2  C   UNL     1       6.364  28.670  -4.456  1.00  0.00    +0.017 A 
ATOM      3  C   UNL     1       6.591  29.375  -5.635  1.00  0.00    +0.001 A 
ATOM      4  C   UNL     1       5.931  28.999  -6.797  1.00  0.00    +0.002 A 
ATOM      5  C   UNL     1       5.034  27.926  -6.777  1.00  0.00    +0.027 A 
ATOM      6  C   UNL     1       4.758  27.219  -5.593  1.00  0.00    +0.057 A 
ENDROOT
BRANCH   1   7
ATOM      7  S   UNL     1       5.415  26.681  -2.881  1.00  0.00    -0.111 SA
BRANCH   7   8
ATOM      8  C   UNL     1       6.051  25.046  -3.437  1.00  0.00    +0.132 C 
BRANCH   8   9
ATOM      9  C   UNL     1       5.221  24.374  -4.536  1.00  0.00    +0.283 CG0
ATOM     10  G   UNL     1       3.872  25.094  -4.660  1.00  0.00    +0.000 G0
BRANCH   9  11
ATOM     11  O   UNL     1       5.922  24.529  -5.793  1.00  0.00    -0.451 OA
BRANCH  11  12
ATOM     12  C   UNL     1       7.270  24.366  -5.723  1.00  0.00    +0.303 C 
ATOM     13  O   UNL     1       7.847  23.377  -5.294  1.00  0.00    -0.253 OA
ATOM     14  C   UNL     1       7.959  25.599  -6.219  1.00  0.00    +0.139 C 
ENDBRANCH  11  12
ENDBRANCH   9  11
ENDBRANCH   8   9
BRANCH   8  15
ATOM     15  C   UNL     1       6.295  24.146  -2.227  1.00  0.00    -0.030 A 
ATOM     16  C   UNL     1       6.139  24.604  -0.907  1.00  0.00    +0.005 A 
ATOM     17  C   UNL     1       6.708  22.817  -2.426  1.00  0.00    +0.005 A 
ATOM     18  C   UNL     1       6.375  23.754   0.175  1.00  0.00    +0.000 A 
ATOM     19  C   UNL     1       6.944  21.970  -1.342  1.00  0.00    +0.000 A 
ATOM     20  C   UNL     1       6.775  22.438  -0.041  1.00  0.00    +0.000 A 
ENDBRANCH   8  15
ENDBRANCH   7   8
ENDBRANCH   1   7
BRANCH   6  21
ATOM     21  N   UNL     1       3.819  26.132  -5.615  1.00  0.00    -0.307 N 
BRANCH  21  22
ATOM     22  C   UNL     1       2.796  26.081  -6.671  1.00  0.00    +0.141 C 
BRANCH  22  23
ATOM     23  C   UNL     1       1.967  27.385  -6.811  1.00  0.00    +0.106 C 
BRANCH  23  24
ATOM     24  N   UNL     1       0.557  27.285  -6.396  1.00  0.00    -0.308 NA
ATOM     25  C   UNL     1       0.439  26.639  -5.088  1.00  0.00    +0.105 C 
ATOM     26  C   UNL     1      -0.097  28.594  -6.369  1.00  0.00    +0.105 C 
ENDBRANCH  23  24
ENDBRANCH  22  23
ENDBRANCH  21  22
BRANCH  21  27
ATOM     27  C   UNL     1       3.845  25.069  -4.703  1.00  0.00    +0.269 CG0
ATOM     28  O   UNL     1       2.864  24.729  -4.036  1.00  0.00    -0.270 OA
ATOM     29  G   UNL     1       5.196  24.362  -4.527  1.00  0.00    +0.000 G0
ENDBRANCH  21  27
ENDBRANCH   6  21
TORSDOF 6
ENDMDL
MODEL 2
REMARK VINA RESULT:    -5.965      1.873      3.571
REMARK INTER + INTRA:          -8.738
REMARK INTER:                  -9.072
REMARK INTRA:                   0.334
REMARK UNBOUND:                 1.064
REMARK SMILES CC(=O)OC1C(=O)N(CCN(C)C)c2ccccc2SC1c1ccccc1
REMARK SMILES IDX 19 1 18 2 17 3 16 4 15 5 14 6 20 7 21 8 5 9 4 11 2 12 3 13
REMARK SMILES IDX 1 14 22 15 23 16 27 17 24 18 26 19 25 20 8 21 9 22 10 23
REMARK SMILES IDX 11 24 12 25 13 26 6 27 7 28
REMARK H PARENT
REMARK Flexibility Score:   44.900
ROOT
ATOM      1  C   UNL     1       2.824  24.455  -3.809  1.00  0.00    +0.032 A 
ATOM      2  C   UNL     1       1.487  24.709  -3.456  1.00  0.00    +0.017 A 
ATOM      3  C   UNL     1       0.743  25.679  -4.122  1.00  0.00    +0.001 A 
ATOM      4  C   UNL     1       1.337  26.425  -5.131  1.00  0.00    +0.002 A 
ATOM      5  C   UNL     1       2.670  26.191  -5.483  1.00  0.00    +0.027 A 
ATOM      6  C   UNL     1       3.434  25.192  -4.853  1.00  0.00    +0.057 A 
ENDROOT
BRANCH   1   7
ATOM      7  S   UNL     1       3.693  23.310  -2.741  1.00  0.00    -0.111 SA
BRANCH   7   8
ATOM      8  C   UNL     1       5.407  23.970  -2.851  1.00  0.00    +0.132 C 
BRANCH   8   9
ATOM      9  C   UNL     1       6.224  23.444  -4.036  1.00  0.00    +0.283 CG0
ATOM     10  G   UNL     1       5.448  23.697  -5.335  1.00  0.00    +0.000 G0
BRANCH   9  11
ATOM     11  O   UNL     1       7.459  24.195  -4.106  1.00  0.00    -0.451 OA
BRANCH  11  12
ATOM     12  C   UNL     1       8.526  23.504  -4.588  1.00  0.00    +0.303 C 
ATOM     13  O   UNL     1       9.211  22.716  -3.952  1.00  0.00    -0.253 OA
ATOM     14  C   UNL     1       8.768  23.871  -6.019  1.00  0.00    +0.139 C 
ENDBRANCH  11  12
ENDBRANCH   9  11
ENDBRANCH   8   9
BRANCH   8  15
ATOM     15  C   UNL     1       6.115  23.803  -1.507  1.00  0.00    -0.030 A 
ATOM     16  C   UNL     1       6.121  24.814  -0.531  1.00  0.00    +0.005 A 
ATOM     17  C   UNL     1       6.803  22.608  -1.233  1.00  0.00    +0.005 A 
ATOM     18  C   UNL     1       6.782  24.628   0.685  1.00  0.00    +0.000 A 
ATOM     19  C   UNL     1       7.463  22.425  -0.016  1.00  0.00    +0.000 A 
ATOM     20  C   UNL     1       7.451  23.435   0.943  1.00  0.00    +0.000 A 
ENDBRANCH   8  15
ENDBRANCH   7   8
ENDBRANCH   1   7
BRANCH   6  21
ATOM     21  N   UNL     1       4.796  24.976  -5.256  1.00  0.00    -0.307 N 
BRANCH  21  22
ATOM     22  C   UNL     1       5.627  26.126  -5.645  1.00  0.00    +0.141 C 
BRANCH  22  23
ATOM     23  C   UNL     1       5.829  27.170  -4.514  1.00  0.00    +0.106 C 
BRANCH  23  24
ATOM     24  N   UNL     1       6.271  28.503  -4.956  1.00  0.00    -0.308 NA
ATOM     25  C   UNL     1       5.536  28.933  -6.146  1.00  0.00    +0.105 C 
ATOM     26  C   UNL     1       6.136  29.502  -3.896  1.00  0.00    +0.105 C 
ENDBRANCH  23  24
ENDBRANCH  22  23
ENDBRANCH  21  22
BRANCH  21  27
ATOM     27  C   UNL     1       5.411  23.718  -5.258  1.00  0.00    +0.269 CG0
ATOM     28  O   UNL     1       5.258  22.895  -6.165  1.00  0.00    -0.270 OA
ATOM     29  G   UNL     1       6.262  23.379  -4.027  1.00  0.00    +0.000 G0
ENDBRANCH  21  27
ENDBRANCH   6  21
TORSDOF 6
ENDMDL
MODEL 3
REMARK VINA RESULT:    -5.353      2.477      6.262
REMARK INTER + INTRA:          -7.732
REMARK INTER:                  -9.018
REMARK INTRA:                   1.286
REMARK UNBOUND:                 1.064
REMARK SMILES CC(=O)OC1C(=O)N(CCN(C)C)c2ccccc2SC1c1ccccc1
REMARK SMILES IDX 19 1 18 2 17 3 16 4 15 5 14 6 20 7 21 8 5 9 4 11 2 12 3 13
REMARK SMILES IDX 1 14 22 15 23 16 27 17 24 18 26 19 25 20 8 21 9 22 10 23
REMARK SMILES IDX 11 24 12 25 13 26 6 27 7 28
REMARK H PARENT
REMARK Flexibility Score:   44.900
ROOT
ATOM      1  C   UNL     1       6.419  23.549  -5.327  1.00  0.00    +0.032 A 
ATOM      2  C   UNL     1       7.319  23.573  -6.407  1.00  0.00    +0.017 A 
ATOM      3  C   UNL     1       8.692  23.489  -6.195  1.00  0.00    +0.001 A 
ATOM      4  C   UNL     1       9.182  23.406  -4.899  1.00  0.00    +0.002 A 
ATOM      5  C   UNL     1       8.297  23.394  -3.815  1.00  0.00    +0.027 A 
ATOM      6  C   UNL     1       6.904  23.441  -4.002  1.00  0.00    +0.057 A 
ENDROOT
BRANCH   1   7
ATOM      7  S   UNL     1       4.705  23.850  -5.753  1.00  0.00    -0.111 SA
BRANCH   7   8
ATOM      8  C   UNL     1       4.410  25.447  -4.887  1.00  0.00    +0.132 C 
BRANCH   8   9
ATOM      9  C   UNL     1       4.583  25.393  -3.364  1.00  0.00    +0.283 CG0
ATOM     10  G   UNL     1       4.722  23.930  -2.925  1.00  0.00    +0.000 G0
BRANCH   9  11
ATOM     11  O   UNL     1       5.813  26.076  -3.023  1.00  0.00    -0.451 OA
BRANCH  11  12
ATOM     12  C   UNL     1       5.975  27.292  -3.607  1.00  0.00    +0.303 C 
ATOM     13  O   UNL     1       5.760  28.372  -3.075  1.00  0.00    -0.253 OA
ATOM     14  C   UNL     1       6.429  27.123  -5.023  1.00  0.00    +0.139 C 
ENDBRANCH  11  12
ENDBRANCH   9  11
ENDBRANCH   8   9
BRANCH   8  15
ATOM     15  C   UNL     1       3.069  26.033  -5.323  1.00  0.00    -0.030 A 
ATOM     16  C   UNL     1       2.944  26.869  -6.446  1.00  0.00    +0.005 A 
ATOM     17  C   UNL     1       1.914  25.751  -4.571  1.00  0.00    +0.005 A 
ATOM     18  C   UNL     1       1.702  27.391  -6.812  1.00  0.00    +0.000 A 
ATOM     19  C   UNL     1       0.674  26.275  -4.940  1.00  0.00    +0.000 A 
ATOM     20  C   UNL     1       0.568  27.093  -6.062  1.00  0.00    +0.000 A 
ENDBRANCH   8  15
ENDBRANCH   7   8
ENDBRANCH   1   7
BRANCH   6  21
ATOM     21  N   UNL     1       6.032  23.411  -2.860  1.00  0.00    -0.307 N 
BRANCH  21  22
ATOM     22  C   UNL     1       6.528  22.875  -1.584  1.00  0.00    +0.141 C 
BRANCH  22  23
ATOM     23  C   UNL     1       5.949  23.587  -0.332  1.00  0.00    +0.106 C 
BRANCH  23  24
ATOM     24  N   UNL     1       6.832  23.609   0.847  1.00  0.00    -0.308 NA
ATOM     25  C   UNL     1       8.006  22.761   0.640  1.00  0.00    +0.105 C 
ATOM     26  C   UNL     1       7.250  24.969   1.190  1.00  0.00    +0.105 C 
ENDBRANCH  23  24
ENDBRANCH  22  23
ENDBRANCH  21  22
BRANCH  21  27
ATOM     27  C   UNL     1       4.725  23.917  -2.873  1.00  0.00    +0.269 CG0
ATOM     28  O   UNL     1       3.737  23.237  -2.582  1.00  0.00    -0.270 OA
ATOM     29  G   UNL     1       4.568  25.374  -3.326  1.00  0.00    +0.000 G0
ENDBRANCH  21  27
ENDBRANCH   6  21
TORSDOF 6
ENDMDL
MODEL 4
REMARK VINA RESULT:    -5.234     18.302     20.209
REMARK INTER + INTRA:          -7.537
REMARK INTER:                  -7.759
REMARK INTRA:                   0.222
REMARK UNBOUND:                 1.064
REMARK SMILES CC(=O)OC1C(=O)N(CCN(C)C)c2ccccc2SC1c1ccccc1
REMARK SMILES IDX 19 1 18 2 17 3 16 4 15 5 14 6 20 7 21 8 5 9 4 11 2 12 3 13
REMARK SMILES IDX 1 14 22 15 23 16 27 17 24 18 26 19 25 20 8 21 9 22 10 23
REMARK SMILES IDX 11 24 12 25 13 26 6 27 7 28
REMARK H PARENT
REMARK Flexibility Score:   44.900
ROOT
ATOM      1  C   UNL     1      15.577  31.303  10.092  1.00  0.00    +0.032 A 
ATOM      2  C   UNL     1      16.584  32.124   9.555  1.00  0.00    +0.017 A 
ATOM      3  C   UNL     1      17.927  31.780   9.677  1.00  0.00    +0.001 A 
ATOM      4  C   UNL     1      18.279  30.624  10.360  1.00  0.00    +0.002 A 
ATOM      5  C   UNL     1      17.288  29.805  10.910  1.00  0.00    +0.027 A 
ATOM      6  C   UNL     1      15.922  30.109  10.771  1.00  0.00    +0.057 A 
ENDROOT
BRANCH   1   7
ATOM      7  S   UNL     1      13.918  31.974  10.011  1.00  0.00    -0.111 SA
BRANCH   7   8
ATOM      8  C   UNL     1      13.520  32.124  11.802  1.00  0.00    +0.132 C 
BRANCH   8   9
ATOM      9  C   UNL     1      13.387  30.789  12.544  1.00  0.00    +0.283 CG0
ATOM     10  G   UNL     1      13.628  29.639  11.558  1.00  0.00    +0.000 G0
BRANCH   9  11
ATOM     11  O   UNL     1      14.420  30.728  13.556  1.00  0.00    -0.451 OA
BRANCH  11  12
ATOM     12  C   UNL     1      14.082  31.274  14.755  1.00  0.00    +0.303 C 
ATOM     13  O   UNL     1      13.001  31.155  15.312  1.00  0.00    -0.253 OA
ATOM     14  C   UNL     1      15.225  32.080  15.288  1.00  0.00    +0.139 C 
ENDBRANCH  11  12
ENDBRANCH   9  11
ENDBRANCH   8   9
BRANCH   8  15
ATOM     15  C   UNL     1      12.315  33.043  11.990  1.00  0.00    -0.030 A 
ATOM     16  C   UNL     1      12.090  33.753  13.183  1.00  0.00    +0.005 A 
ATOM     17  C   UNL     1      11.380  33.178  10.949  1.00  0.00    +0.005 A 
ATOM     18  C   UNL     1      10.974  34.581  13.321  1.00  0.00    +0.000 A 
ATOM     19  C   UNL     1      10.265  34.007  11.091  1.00  0.00    +0.000 A 
ATOM     20  C   UNL     1      10.064  34.710  12.276  1.00  0.00    +0.000 A 
ENDBRANCH   8  15
ENDBRANCH   7   8
ENDBRANCH   1   7
BRANCH   6  21
ATOM     21  N   UNL     1      14.936  29.232  11.339  1.00  0.00    -0.307 N 
BRANCH  21  22
ATOM     22  C   UNL     1      15.327  27.877  11.757  1.00  0.00    +0.141 C 
BRANCH  22  23
ATOM     23  C   UNL     1      15.305  26.831  10.610  1.00  0.00    +0.106 C 
BRANCH  23  24
ATOM     24  N   UNL     1      15.674  25.459  10.998  1.00  0.00    -0.308 NA
ATOM     25  C   UNL     1      17.057  25.162  10.627  1.00  0.00    +0.105 C 
ATOM     26  C   UNL     1      15.478  25.227  12.430  1.00  0.00    +0.105 C 
ENDBRANCH  23  24
ENDBRANCH  22  23
ENDBRANCH  21  22
BRANCH  21  27
ATOM     27  C   UNL     1      13.607  29.610  11.571  1.00  0.00    +0.269 CG0
ATOM     28  O   UNL     1      12.647  29.068  11.018  1.00  0.00    -0.270 OA
ATOM     29  G   UNL     1      13.397  30.791  12.528  1.00  0.00    +0.000 G0
ENDBRANCH  21  27
ENDBRANCH   6  21
TORSDOF 6
ENDMDL
MODEL 5
REMARK VINA RESULT:    -5.041      2.224      5.511
REMARK INTER + INTRA:          -7.219
REMARK INTER:                  -7.634
REMARK INTRA:                   0.416
REMARK UNBOUND:                 1.064
REMARK SMILES CC(=O)OC1C(=O)N(CCN(C)C)c2ccccc2SC1c1ccccc1
REMARK SMILES IDX 19 1 18 2 17 3 16 4 15 5 14 6 20 7 21 8 5 9 4 11 2 12 3 13
REMARK SMILES IDX 1 14 22 15 23 16 27 17 24 18 26 19 25 20 8 21 9 22 10 23
REMARK SMILES IDX 11 24 12 25 13 26 6 27 7 28
REMARK H PARENT
REMARK Flexibility Score:   44.900
ROOT
ATOM      1  C   UNL     1       4.628  27.339  -6.406  1.00  0.00    +0.032 A 
ATOM      2  C   UNL     1       4.598  28.684  -6.812  1.00  0.00    +0.017 A 
ATOM      3  C   UNL     1       5.740  29.477  -6.745  1.00  0.00    +0.001 A 
ATOM      4  C   UNL     1       6.919  28.940  -6.245  1.00  0.00    +0.002 A 
ATOM      5  C   UNL     1       6.959  27.606  -5.826  1.00  0.00    +0.027 A 
ATOM      6  C   UNL     1       5.830  26.772  -5.917  1.00  0.00    +0.057 A 
ENDROOT
BRANCH   1   7
ATOM      7  S   UNL     1       3.039  26.511  -6.383  1.00  0.00    -0.111 SA
BRANCH   7   8
ATOM      8  C   UNL     1       2.932  26.022  -4.611  1.00  0.00    +0.132 C 
BRANCH   8   9
ATOM      9  C   UNL     1       3.800  24.820  -4.223  1.00  0.00    +0.283 CG0
ATOM     10  G   UNL     1       4.814  24.548  -5.342  1.00  0.00    +0.000 G0
BRANCH   9  11
ATOM     11  O   UNL     1       4.542  25.163  -3.028  1.00  0.00    -0.451 OA
BRANCH  11  12
ATOM     12  C   UNL     1       4.589  24.188  -2.082  1.00  0.00    +0.303 C 
ATOM     13  O   UNL     1       4.058  23.090  -2.164  1.00  0.00    -0.253 OA
ATOM     14  C   UNL     1       5.364  24.666  -0.894  1.00  0.00    +0.139 C 
ENDBRANCH  11  12
ENDBRANCH   9  11
ENDBRANCH   8   9
BRANCH   8  15
ATOM     15  C   UNL     1       1.468  25.868  -4.204  1.00  0.00    -0.030 A 
ATOM     16  C   UNL     1       0.574  26.953  -4.191  1.00  0.00    +0.005 A 
ATOM     17  C   UNL     1       0.990  24.606  -3.808  1.00  0.00    +0.005 A 
ATOM     18  C   UNL     1      -0.757  26.775  -3.808  1.00  0.00    +0.000 A 
ATOM     19  C   UNL     1      -0.341  24.432  -3.426  1.00  0.00    +0.000 A 
ATOM     20  C   UNL     1      -1.215  25.517  -3.428  1.00  0.00    +0.000 A 
ENDBRANCH   8  15
ENDBRANCH   7   8
ENDBRANCH   1   7
BRANCH   6  21
ATOM     21  N   UNL     1       5.920  25.404  -5.488  1.00  0.00    -0.307 N 
BRANCH  21  22
ATOM     22  C   UNL     1       7.224  24.855  -5.089  1.00  0.00    +0.141 C 
BRANCH  22  23
ATOM     23  C   UNL     1       7.656  23.601  -5.896  1.00  0.00    +0.106 C 
BRANCH  23  24
ATOM     24  N   UNL     1       9.032  23.631  -6.421  1.00  0.00    -0.308 NA
ATOM     25  C   UNL     1       9.457  25.002  -6.704  1.00  0.00    +0.105 C 
ATOM     26  C   UNL     1       9.979  22.991  -5.506  1.00  0.00    +0.105 C 
ENDBRANCH  23  24
ENDBRANCH  22  23
ENDBRANCH  21  22
BRANCH  21  27
ATOM     27  C   UNL     1       4.811  24.554  -5.377  1.00  0.00    +0.269 CG0
ATOM     28  O   UNL     1       4.582  23.639  -6.173  1.00  0.00    -0.270 OA
ATOM     29  G   UNL     1       3.844  24.852  -4.224  1.00  0.00    +0.000 G0
ENDBRANCH  21  27
ENDBRANCH   6  21
TORSDOF 6
ENDMDL
MODEL 6
REMARK VINA RESULT:    -4.569     18.817     20.957
REMARK INTER + INTRA:          -6.443
REMARK INTER:                  -6.553
REMARK INTRA:                   0.109
REMARK UNBOUND:                 1.064
REMARK SMILES CC(=O)OC1C(=O)N(CCN(C)C)c2ccccc2SC1c1ccccc1
REMARK SMILES IDX 19 1 18 2 17 3 16 4 15 5 14 6 20 7 21 8 5 9 4 11 2 12 3 13
REMARK SMILES IDX 1 14 22 15 23 16 27 17 24 18 26 19 25 20 8 21 9 22 10 23
REMARK SMILES IDX 11 24 12 25 13 26 6 27 7 28
REMARK H PARENT
REMARK Flexibility Score:   44.900
ROOT
ATOM      1  C   UNL     1      14.589  29.401  10.981  1.00  0.00    +0.032 A 
ATOM      2  C   UNL     1      15.233  29.376   9.732  1.00  0.00    +0.017 A 
ATOM      3  C   UNL     1      16.510  28.840   9.596  1.00  0.00    +0.001 A 
ATOM      4  C   UNL     1      17.168  28.346  10.715  1.00  0.00    +0.002 A 
ATOM      5  C   UNL     1      16.543  28.376  11.966  1.00  0.00    +0.027 A 
ATOM      6  C   UNL     1      15.239  28.878  12.125  1.00  0.00    +0.057 A 
ENDROOT
BRANCH   1   7
ATOM      7  S   UNL     1      13.032  30.286  11.022  1.00  0.00    -0.111 SA
BRANCH   7   8
ATOM      8  C   UNL     1      13.461  31.685  12.138  1.00  0.00    +0.132 C 
BRANCH   8   9
ATOM      9  C   UNL     1      13.849  31.274  13.563  1.00  0.00    +0.283 CG0
ATOM     10  G   UNL     1      13.592  29.772  13.741  1.00  0.00    +0.000 G0
BRANCH   9  11
ATOM     11  O   UNL     1      15.269  31.503  13.730  1.00  0.00    -0.451 OA
BRANCH  11  12
ATOM     12  C   UNL     1      15.600  32.734  14.203  1.00  0.00    +0.303 C 
ATOM     13  O   UNL     1      14.911  33.422  14.942  1.00  0.00    -0.253 OA
ATOM     14  C   UNL     1      16.931  33.149  13.658  1.00  0.00    +0.139 C 
ENDBRANCH  11  12
ENDBRANCH   9  11
ENDBRANCH   8   9
BRANCH   8  15
ATOM     15  C   UNL     1      12.358  32.741  12.093  1.00  0.00    -0.030 A 
ATOM     16  C   UNL     1      12.003  33.506  13.218  1.00  0.00    +0.005 A 
ATOM     17  C   UNL     1      11.652  32.952  10.896  1.00  0.00    +0.005 A 
ATOM     18  C   UNL     1      10.986  34.459  13.141  1.00  0.00    +0.000 A 
ATOM     19  C   UNL     1      10.635  33.907  10.822  1.00  0.00    +0.000 A 
ATOM     20  C   UNL     1      10.304  34.661  11.945  1.00  0.00    +0.000 A 
ENDBRANCH   8  15
ENDBRANCH   7   8
ENDBRANCH   1   7
BRANCH   6  21
ATOM     21  N   UNL     1      14.630  28.877  13.426  1.00  0.00    -0.307 N 
BRANCH  21  22
ATOM     22  C   UNL     1      15.132  27.959  14.459  1.00  0.00    +0.141 C 
BRANCH  22  23
ATOM     23  C   UNL     1      14.409  26.586  14.491  1.00  0.00    +0.106 C 
BRANCH  23  24
ATOM     24  N   UNL     1      15.236  25.427  14.114  1.00  0.00    -0.308 NA
ATOM     25  C   UNL     1      15.129  25.148  12.682  1.00  0.00    +0.105 C 
ATOM     26  C   UNL     1      16.639  25.615  14.484  1.00  0.00    +0.105 C 
ENDBRANCH  23  24
ENDBRANCH  22  23
ENDBRANCH  21  22
BRANCH  21  27
ATOM     27  C   UNL     1      13.597  29.747  13.796  1.00  0.00    +0.269 CG0
ATOM     28  O   UNL     1      12.512  29.357  14.236  1.00  0.00    -0.270 OA
ATOM     29  G   UNL     1      13.861  31.243  13.578  1.00  0.00    +0.000 G0
ENDBRANCH  21  27
ENDBRANCH   6  21
TORSDOF 6
ENDMDL
MODEL 7
REMARK VINA RESULT:    -4.344      1.991      5.380
REMARK INTER + INTRA:          -6.073
REMARK INTER:                  -6.926
REMARK INTRA:                   0.853
REMARK UNBOUND:                 1.064
REMARK SMILES CC(=O)OC1C(=O)N(CCN(C)C)c2ccccc2SC1c1ccccc1
REMARK SMILES IDX 19 1 18 2 17 3 16 4 15 5 14 6 20 7 21 8 5 9 4 11 2 12 3 13
REMARK SMILES IDX 1 14 22 15 23 16 27 17 24 18 26 19 25 20 8 21 9 22 10 23
REMARK SMILES IDX 11 24 12 25 13 26 6 27 7 28
REMARK H PARENT
REMARK Flexibility Score:   44.900
ROOT
ATOM      1  C   UNL     1       3.511  25.377  -5.472  1.00  0.00    +0.032 A 
ATOM      2  C   UNL     1       2.502  26.085  -6.149  1.00  0.00    +0.017 A 
ATOM      3  C   UNL     1       1.319  26.435  -5.504  1.00  0.00    +0.001 A 
ATOM      4  C   UNL     1       1.122  26.059  -4.182  1.00  0.00    +0.002 A 
ATOM      5  C   UNL     1       2.113  25.344  -3.502  1.00  0.00    +0.027 A 
ATOM      6  C   UNL     1       3.332  25.008  -4.117  1.00  0.00    +0.057 A 
ENDROOT
BRANCH   1   7
ATOM      7  S   UNL     1       4.887  24.845  -6.490  1.00  0.00    -0.111 SA
BRANCH   7   8
ATOM      8  C   UNL     1       6.309  25.427  -5.477  1.00  0.00    +0.132 C 
BRANCH   8   9
ATOM      9  C   UNL     1       6.624  24.559  -4.254  1.00  0.00    +0.283 CG0
ATOM     10  G   UNL     1       5.431  23.636  -3.970  1.00  0.00    +0.000 G0
BRANCH   9  11
ATOM     11  O   UNL     1       7.763  23.724  -4.571  1.00  0.00    -0.451 OA
BRANCH  11  12
ATOM     12  C   UNL     1       8.351  23.986  -5.769  1.00  0.00    +0.303 C 
ATOM     13  O   UNL     1       8.837  25.056  -6.104  1.00  0.00    -0.253 OA
ATOM     14  C   UNL     1       8.289  22.773  -6.644  1.00  0.00    +0.139 C 
ENDBRANCH  11  12
ENDBRANCH   9  11
ENDBRANCH   8   9
BRANCH   8  15
ATOM     15  C   UNL     1       6.134  26.906  -5.139  1.00  0.00    -0.030 A 
ATOM     16  C   UNL     1       6.192  27.912  -6.120  1.00  0.00    +0.005 A 
ATOM     17  C   UNL     1       5.926  27.290  -3.803  1.00  0.00    +0.005 A 
ATOM     18  C   UNL     1       6.032  29.256  -5.774  1.00  0.00    +0.000 A 
ATOM     19  C   UNL     1       5.767  28.634  -3.460  1.00  0.00    +0.000 A 
ATOM     20  C   UNL     1       5.818  29.616  -4.446  1.00  0.00    +0.000 A 
ENDBRANCH   8  15
ENDBRANCH   7   8
ENDBRANCH   1   7
BRANCH   6  21
ATOM     21  N   UNL     1       4.329  24.285  -3.376  1.00  0.00    -0.307 N 
BRANCH  21  22
ATOM     22  C   UNL     1       4.187  24.145  -1.919  1.00  0.00    +0.141 C 
BRANCH  22  23
ATOM     23  C   UNL     1       5.423  24.625  -1.114  1.00  0.00    +0.106 C 
BRANCH  23  24
ATOM     24  N   UNL     1       6.021  23.623  -0.215  1.00  0.00    -0.308 NA
ATOM     25  C   UNL     1       6.939  22.746  -0.943  1.00  0.00    +0.105 C 
ATOM     26  C   UNL     1       6.714  24.246   0.913  1.00  0.00    +0.105 C 
ENDBRANCH  23  24
ENDBRANCH  22  23
ENDBRANCH  21  22
BRANCH  21  27
ATOM     27  C   UNL     1       5.426  23.651  -3.972  1.00  0.00    +0.269 CG0
ATOM     28  O   UNL     1       5.455  22.441  -4.213  1.00  0.00    -0.270 OA
ATOM     29  G   UNL     1       6.640  24.539  -4.274  1.00  0.00    +0.000 G0
ENDBRANCH  21  27
ENDBRANCH   6  21
TORSDOF 6
ENDMDL
MODEL 8
REMARK VINA RESULT:    -3.939      1.793      2.497
REMARK INTER + INTRA:          -5.409
REMARK INTER:                  -6.582
REMARK INTRA:                   1.173
REMARK UNBOUND:                 1.064
REMARK SMILES CC(=O)OC1C(=O)N(CCN(C)C)c2ccccc2SC1c1ccccc1
REMARK SMILES IDX 19 1 18 2 17 3 16 4 15 5 14 6 20 7 21 8 5 9 4 11 2 12 3 13
REMARK SMILES IDX 1 14 22 15 23 16 27 17 24 18 26 19 25 20 8 21 9 22 10 23
REMARK SMILES IDX 11 24 12 25 13 26 6 27 7 28
REMARK H PARENT
REMARK Flexibility Score:   44.900
ROOT
ATOM      1  C   UNL     1       6.209  25.687  -6.076  1.00  0.00    +0.032 A 
ATOM      2  C   UNL     1       7.498  26.201  -6.299  1.00  0.00    +0.017 A 
ATOM      3  C   UNL     1       7.698  27.563  -6.507  1.00  0.00    +0.001 A 
ATOM      4  C   UNL     1       6.607  28.422  -6.519  1.00  0.00    +0.002 A 
ATOM      5  C   UNL     1       5.318  27.921  -6.309  1.00  0.00    +0.027 A 
ATOM      6  C   UNL     1       5.091  26.555  -6.061  1.00  0.00    +0.057 A 
ENDROOT
BRANCH   1   7
ATOM      7  S   UNL     1       6.100  23.900  -6.009  1.00  0.00    -0.111 SA
BRANCH   7   8
ATOM      8  C   UNL     1       5.285  23.666  -4.375  1.00  0.00    +0.132 C 
BRANCH   8   9
ATOM      9  C   UNL     1       4.564  24.906  -3.834  1.00  0.00    +0.283 CG0
ATOM     10  G   UNL     1       3.385  25.245  -4.754  1.00  0.00    +0.000 G0
BRANCH   9  11
ATOM     11  O   UNL     1       4.028  24.584  -2.528  1.00  0.00    -0.451 OA
BRANCH  11  12
ATOM     12  C   UNL     1       4.799  24.974  -1.479  1.00  0.00    +0.303 C 
ATOM     13  O   UNL     1       4.718  24.546  -0.337  1.00  0.00    -0.253 OA
ATOM     14  C   UNL     1       5.754  26.041  -1.916  1.00  0.00    +0.139 C 
ENDBRANCH  11  12
ENDBRANCH   9  11
ENDBRANCH   8   9
BRANCH   8  15
ATOM     15  C   UNL     1       6.277  23.062  -3.383  1.00  0.00    -0.030 A 
ATOM     16  C   UNL     1       7.659  23.312  -3.456  1.00  0.00    +0.005 A 
ATOM     17  C   UNL     1       5.807  22.209  -2.368  1.00  0.00    +0.005 A 
ATOM     18  C   UNL     1       8.537  22.738  -2.534  1.00  0.00    +0.000 A 
ATOM     19  C   UNL     1       6.688  21.638  -1.448  1.00  0.00    +0.000 A 
ATOM     20  C   UNL     1       8.052  21.904  -1.530  1.00  0.00    +0.000 A 
ENDBRANCH   8  15
ENDBRANCH   7   8
ENDBRANCH   1   7
BRANCH   6  21
ATOM     21  N   UNL     1       3.752  26.086  -5.837  1.00  0.00    -0.307 N 
BRANCH  21  22
ATOM     22  C   UNL     1       2.699  26.409  -6.812  1.00  0.00    +0.141 C 
BRANCH  22  23
ATOM     23  C   UNL     1       1.936  27.725  -6.506  1.00  0.00    +0.106 C 
BRANCH  23  24
ATOM     24  N   UNL     1       0.475  27.593  -6.375  1.00  0.00    -0.308 NA
ATOM     25  C   UNL     1       0.103  27.202  -5.014  1.00  0.00    +0.105 C 
ATOM     26  C   UNL     1      -0.219  28.825  -6.750  1.00  0.00    +0.105 C 
ENDBRANCH  23  24
ENDBRANCH  22  23
ENDBRANCH  21  22
BRANCH  21  27
ATOM     27  C   UNL     1       3.387  25.282  -4.750  1.00  0.00    +0.269 CG0
ATOM     28  O   UNL     1       2.225  24.927  -4.534  1.00  0.00    -0.270 OA
ATOM     29  G   UNL     1       4.516  24.894  -3.785  1.00  0.00    +0.000 G0
ENDBRANCH  21  27
ENDBRANCH   6  21
TORSDOF 6
ENDMDL
MODEL 9
REMARK VINA RESULT:    -3.398     18.984     21.507
REMARK INTER + INTRA:          -4.519
REMARK INTER:                  -6.028
REMARK INTRA:                   1.509
REMARK UNBOUND:                 1.064
REMARK SMILES CC(=O)OC1C(=O)N(CCN(C)C)c2ccccc2SC1c1ccccc1
REMARK SMILES IDX 19 1 18 2 17 3 16 4 15 5 14 6 20 7 21 8 5 9 4 11 2 12 3 13
REMARK SMILES IDX 1 14 22 15 23 16 27 17 24 18 26 19 25 20 8 21 9 22 10 23
REMARK SMILES IDX 11 24 12 25 13 26 6 27 7 28
REMARK H PARENT
REMARK Flexibility Score:   44.900
ROOT
ATOM      1  C   UNL     1      14.752  29.376  11.166  1.00  0.00    +0.032 A 
ATOM      2  C   UNL     1      14.942  29.025   9.819  1.00  0.00    +0.017 A 
ATOM      3  C   UNL     1      16.185  28.597   9.360  1.00  0.00    +0.001 A 
ATOM      4  C   UNL     1      17.258  28.541  10.240  1.00  0.00    +0.002 A 
ATOM      5  C   UNL     1      17.084  28.900  11.581  1.00  0.00    +0.027 A 
ATOM      6  C   UNL     1      15.831  29.301  12.079  1.00  0.00    +0.057 A 
ENDROOT
BRANCH   1   7
ATOM      7  S   UNL     1      13.149  30.078  11.555  1.00  0.00    -0.111 SA
BRANCH   7   8
ATOM      8  C   UNL     1      13.646  31.718  12.226  1.00  0.00    +0.132 C 
BRANCH   8   9
ATOM      9  C   UNL     1      14.256  31.679  13.632  1.00  0.00    +0.283 CG0
ATOM     10  G   UNL     1      14.520  30.220  14.026  1.00  0.00    +0.000 G0
BRANCH   9  11
ATOM     11  O   UNL     1      15.530  32.364  13.593  1.00  0.00    -0.451 OA
BRANCH  11  12
ATOM     12  C   UNL     1      15.458  33.717  13.708  1.00  0.00    +0.303 C 
ATOM     13  O   UNL     1      15.167  34.331  14.724  1.00  0.00    -0.253 OA
ATOM     14  C   UNL     1      15.758  34.357  12.389  1.00  0.00    +0.139 C 
ENDBRANCH  11  12
ENDBRANCH   9  11
ENDBRANCH   8   9
BRANCH   8  15
ATOM     15  C   UNL     1      12.485  32.703  12.098  1.00  0.00    -0.030 A 
ATOM     16  C   UNL     1      11.814  32.919  10.882  1.00  0.00    +0.005 A 
ATOM     17  C   UNL     1      12.077  33.440  13.223  1.00  0.00    +0.005 A 
ATOM     18  C   UNL     1      10.761  33.832  10.800  1.00  0.00    +0.000 A 
ATOM     19  C   UNL     1      11.023  34.352  13.139  1.00  0.00    +0.000 A 
ATOM     20  C   UNL     1      10.364  34.546  11.927  1.00  0.00    +0.000 A 
ENDBRANCH   8  15
ENDBRANCH   7   8
ENDBRANCH   1   7
BRANCH   6  21
ATOM     21  N   UNL     1      15.695  29.647  13.467  1.00  0.00    -0.307 N 
BRANCH  21  22
ATOM     22  C   UNL     1      16.832  29.446  14.378  1.00  0.00    +0.141 C 
BRANCH  22  23
ATOM     23  C   UNL     1      18.219  29.665  13.716  1.00  0.00    +0.106 C 
BRANCH  23  24
ATOM     24  N   UNL     1      18.879  30.941  14.039  1.00  0.00    -0.308 NA
ATOM     25  C   UNL     1      18.689  31.917  12.965  1.00  0.00    +0.105 C 
ATOM     26  C   UNL     1      18.405  31.494  15.308  1.00  0.00    +0.105 C 
ENDBRANCH  23  24
ENDBRANCH  22  23
ENDBRANCH  21  22
BRANCH  21  27
ATOM     27  C   UNL     1      14.538  30.221  14.010  1.00  0.00    +0.269 CG0
ATOM     28  O   UNL     1      13.749  29.597  14.725  1.00  0.00    -0.270 OA
ATOM     29  G   UNL     1      14.263  31.680  13.625  1.00  0.00    +0.000 G0
ENDBRANCH  21  27
ENDBRANCH   6  21
TORSDOF 6
ENDMDL
