MODEL 1
REMARK VINA RESULT:    -6.960      0.000      0.000
REMARK INTER + INTRA:          -9.187
REMARK INTER:                  -8.588
REMARK INTRA:                  -0.599
REMARK UNBOUND:                -0.599
REMARK SMILES CCCc1nc2c(c(=O)n(C)c(=O)n2C)n1Cc1ccco1
REMARK SMILES IDX 4 1 5 2 6 3 7 4 16 5 8 6 9 7 10 8 11 9 12 10 13 11 14 12
REMARK SMILES IDX 15 13 3 14 2 15 1 16 17 17 18 18 19 19 22 20 20 21 21 22
REMARK H PARENT
ROOT
ATOM      1  C   UNL     1       6.926  24.030  -4.420  1.00  0.00    +0.112 A 
ATOM      2  N   UNL     1       6.513  24.968  -5.255  1.00  0.00    -0.215 NA
ATOM      3  C   UNL     1       5.193  25.132  -4.982  1.00  0.00    +0.168 A 
ATOM      4  C   UNL     1       4.776  24.324  -3.970  1.00  0.00    +0.153 A 
ATOM      5  N   UNL     1       5.882  23.592  -3.618  1.00  0.00    -0.314 N 
ATOM      6  C   UNL     1       3.440  24.334  -3.479  1.00  0.00    +0.282 C 
ATOM      7  O   UNL     1       3.076  23.690  -2.499  1.00  0.00    -0.267 OA
ATOM      8  N   UNL     1       2.598  25.184  -4.206  1.00  0.00    -0.261 N 
ATOM      9  C   UNL     1       1.209  25.260  -3.799  1.00  0.00    +0.159 C 
ATOM     10  C   UNL     1       3.008  26.069  -5.222  1.00  0.00    +0.332 C 
ATOM     11  O   UNL     1       2.214  26.864  -5.734  1.00  0.00    -0.247 OA
ATOM     12  N   UNL     1       4.345  26.011  -5.613  1.00  0.00    -0.279 N 
ATOM     13  C   UNL     1       4.846  26.874  -6.666  1.00  0.00    +0.157 C 
ENDROOT
BRANCH   1  14
ATOM     14  C   UNL     1       8.328  23.516  -4.353  1.00  0.00    +0.075 C 
BRANCH  14  15
ATOM     15  C   UNL     1       9.024  23.625  -5.709  1.00  0.00    +0.005 C 
ATOM     16  C   UNL     1      10.283  22.774  -5.759  1.00  0.00    +0.004 C 
ENDBRANCH  14  15
ENDBRANCH   1  14
BRANCH   5  17
ATOM     17  C   UNL     1       5.948  22.565  -2.589  1.00  0.00    +0.199 C 
BRANCH  17  18
ATOM     18  C   UNL     1       6.486  23.115  -1.320  1.00  0.00    +0.123 A 
ATOM     19  C   UNL     1       7.529  22.746  -0.493  1.00  0.00    +0.047 A 
ATOM     20  O   UNL     1       5.874  24.229  -0.821  1.00  0.00    -0.467 OA
ATOM     21  C   UNL     1       7.545  23.678   0.572  1.00  0.00    +0.042 A 
ATOM     22  C   UNL     1       6.520  24.560   0.325  1.00  0.00    +0.195 A 
ENDBRANCH  17  18
ENDBRANCH   5  17
TORSDOF 4
ENDMDL
MODEL 2
REMARK VINA RESULT:    -6.925      1.927      6.474
REMARK INTER + INTRA:          -9.143
REMARK INTER:                  -8.586
REMARK INTRA:                  -0.557
REMARK UNBOUND:                -0.599
REMARK SMILES CCCc1nc2c(c(=O)n(C)c(=O)n2C)n1Cc1ccco1
REMARK SMILES IDX 4 1 5 2 6 3 7 4 16 5 8 6 9 7 10 8 11 9 12 10 13 11 14 12
REMARK SMILES IDX 15 13 3 14 2 15 1 16 17 17 18 18 19 19 22 20 20 21 21 22
REMARK H PARENT
ROOT
ATOM      1  C   UNL     1       3.181  25.355  -4.260  1.00  0.00    +0.112 A 
ATOM      2  N   UNL     1       3.470  24.687  -3.156  1.00  0.00    -0.215 NA
ATOM      3  C   UNL     1       4.751  24.266  -3.321  1.00  0.00    +0.168 A 
ATOM      4  C   UNL     1       5.277  24.679  -4.505  1.00  0.00    +0.153 A 
ATOM      5  N   UNL     1       4.263  25.361  -5.129  1.00  0.00    -0.314 N 
ATOM      6  C   UNL     1       6.615  24.388  -4.895  1.00  0.00    +0.282 C 
ATOM      7  O   UNL     1       7.137  24.843  -5.909  1.00  0.00    -0.267 OA
ATOM      8  N   UNL     1       7.284  23.566  -3.980  1.00  0.00    -0.261 N 
ATOM      9  C   UNL     1       8.651  23.196  -4.286  1.00  0.00    +0.159 C 
ATOM     10  C   UNL     1       6.786  23.165  -2.725  1.00  0.00    +0.332 C 
ATOM     11  O   UNL     1       7.490  22.529  -1.934  1.00  0.00    -0.247 OA
ATOM     12  N   UNL     1       5.475  23.525  -2.417  1.00  0.00    -0.279 N 
ATOM     13  C   UNL     1       4.878  23.136  -1.153  1.00  0.00    +0.157 C 
ENDROOT
BRANCH   1  14
ATOM     14  C   UNL     1       1.866  26.011  -4.531  1.00  0.00    +0.075 C 
BRANCH  14  15
ATOM     15  C   UNL     1       0.726  25.281  -3.822  1.00  0.00    +0.005 C 
ATOM     16  C   UNL     1      -0.395  26.235  -3.441  1.00  0.00    +0.004 C 
ENDBRANCH  14  15
ENDBRANCH   1  14
BRANCH   5  17
ATOM     17  C   UNL     1       4.320  25.985  -6.442  1.00  0.00    +0.199 C 
BRANCH  17  18
ATOM     18  C   UNL     1       4.795  27.387  -6.348  1.00  0.00    +0.123 A 
ATOM     19  C   UNL     1       5.964  27.964  -5.893  1.00  0.00    +0.047 A 
ATOM     20  O   UNL     1       3.950  28.357  -6.806  1.00  0.00    -0.467 OA
ATOM     21  C   UNL     1       5.818  29.361  -6.072  1.00  0.00    +0.042 A 
ATOM     22  C   UNL     1       4.576  29.548  -6.632  1.00  0.00    +0.195 A 
ENDBRANCH  17  18
ENDBRANCH   5  17
TORSDOF 4
ENDMDL
MODEL 3
REMARK VINA RESULT:    -6.215      2.141      4.899
REMARK INTER + INTRA:          -8.268
REMARK INTER:                  -7.457
REMARK INTRA:                  -0.810
REMARK UNBOUND:                -0.599
REMARK SMILES CCCc1nc2c(c(=O)n(C)c(=O)n2C)n1Cc1ccco1
REMARK SMILES IDX 4 1 5 2 6 3 7 4 16 5 8 6 9 7 10 8 11 9 12 10 13 11 14 12
REMARK SMILES IDX 15 13 3 14 2 15 1 16 17 17 18 18 19 19 22 20 20 21 21 22
REMARK H PARENT
ROOT
ATOM      1  C   UNL     1       7.684  23.843  -5.231  1.00  0.00    +0.112 A 
ATOM      2  N   UNL     1       8.138  23.127  -4.216  1.00  0.00    -0.215 NA
ATOM      3  C   UNL     1       7.231  23.305  -3.221  1.00  0.00    +0.168 A 
ATOM      4  C   UNL     1       6.201  24.106  -3.605  1.00  0.00    +0.153 A 
ATOM      5  N   UNL     1       6.498  24.478  -4.892  1.00  0.00    -0.314 N 
ATOM      6  C   UNL     1       5.108  24.418  -2.748  1.00  0.00    +0.282 C 
ATOM      7  O   UNL     1       4.121  25.050  -3.114  1.00  0.00    -0.267 OA
ATOM      8  N   UNL     1       5.259  23.893  -1.459  1.00  0.00    -0.261 N 
ATOM      9  C   UNL     1       4.209  24.163  -0.498  1.00  0.00    +0.159 C 
ATOM     10  C   UNL     1       6.285  23.021  -1.045  1.00  0.00    +0.332 C 
ATOM     11  O   UNL     1       6.278  22.518   0.082  1.00  0.00    -0.247 OA
ATOM     12  N   UNL     1       7.295  22.747  -1.967  1.00  0.00    -0.279 N 
ATOM     13  C   UNL     1       8.399  21.873  -1.616  1.00  0.00    +0.157 C 
ENDROOT
BRANCH   1  14
ATOM     14  C   UNL     1       8.361  23.950  -6.559  1.00  0.00    +0.075 C 
BRANCH  14  15
ATOM     15  C   UNL     1       9.702  24.672  -6.441  1.00  0.00    +0.005 C 
ATOM     16  C   UNL     1      10.868  23.708  -6.595  1.00  0.00    +0.004 C 
ENDBRANCH  14  15
ENDBRANCH   1  14
BRANCH   5  17
ATOM     17  C   UNL     1       5.708  25.357  -5.742  1.00  0.00    +0.199 C 
BRANCH  17  18
ATOM     18  C   UNL     1       6.235  26.743  -5.714  1.00  0.00    +0.123 A 
ATOM     19  C   UNL     1       7.136  27.432  -6.501  1.00  0.00    +0.047 A 
ATOM     20  O   UNL     1       5.754  27.566  -4.736  1.00  0.00    -0.467 OA
ATOM     21  C   UNL     1       7.217  28.741  -5.966  1.00  0.00    +0.042 A 
ATOM     22  C   UNL     1       6.357  28.771  -4.894  1.00  0.00    +0.195 A 
ENDBRANCH  17  18
ENDBRANCH   5  17
TORSDOF 4
ENDMDL
MODEL 4
REMARK VINA RESULT:    -6.042      2.100      4.674
REMARK INTER + INTRA:          -8.054
REMARK INTER:                  -7.455
REMARK INTRA:                  -0.599
REMARK UNBOUND:                -0.599
REMARK SMILES CCCc1nc2c(c(=O)n(C)c(=O)n2C)n1Cc1ccco1
REMARK SMILES IDX 4 1 5 2 6 3 7 4 16 5 8 6 9 7 10 8 11 9 12 10 13 11 14 12
REMARK SMILES IDX 15 13 3 14 2 15 1 16 17 17 18 18 19 19 22 20 20 21 21 22
REMARK H PARENT
ROOT
ATOM      1  C   UNL     1       3.477  25.129  -4.088  1.00  0.00    +0.112 A 
ATOM      2  N   UNL     1       3.722  26.304  -4.642  1.00  0.00    -0.215 NA
ATOM      3  C   UNL     1       4.994  26.218  -5.110  1.00  0.00    +0.168 A 
ATOM      4  C   UNL     1       5.543  24.995  -4.876  1.00  0.00    +0.153 A 
ATOM      5  N   UNL     1       4.580  24.295  -4.195  1.00  0.00    -0.314 N 
ATOM      6  C   UNL     1       6.858  24.649  -5.300  1.00  0.00    +0.282 C 
ATOM      7  O   UNL     1       7.326  23.520  -5.192  1.00  0.00    -0.267 OA
ATOM      8  N   UNL     1       7.541  25.720  -5.888  1.00  0.00    -0.261 N 
ATOM      9  C   UNL     1       8.895  25.481  -6.344  1.00  0.00    +0.159 C 
ATOM     10  C   UNL     1       6.985  26.979  -6.190  1.00  0.00    +0.332 C 
ATOM     11  O   UNL     1       7.631  27.828  -6.811  1.00  0.00    -0.247 OA
ATOM     12  N   UNL     1       5.678  27.214  -5.764  1.00  0.00    -0.279 N 
ATOM     13  C   UNL     1       5.037  28.491  -6.017  1.00  0.00    +0.157 C 
ENDROOT
BRANCH   1  14
ATOM     14  C   UNL     1       2.185  24.756  -3.435  1.00  0.00    +0.075 C 
BRANCH  14  15
ATOM     15  C   UNL     1       0.996  25.386  -4.159  1.00  0.00    +0.005 C 
ATOM     16  C   UNL     1      -0.208  25.521  -3.240  1.00  0.00    +0.004 C 
ENDBRANCH  14  15
ENDBRANCH   1  14
BRANCH   5  17
ATOM     17  C   UNL     1       4.692  22.932  -3.697  1.00  0.00    +0.199 C 
BRANCH  17  18
ATOM     18  C   UNL     1       5.407  22.894  -2.398  1.00  0.00    +0.123 A 
ATOM     19  C   UNL     1       5.081  23.312  -1.123  1.00  0.00    +0.047 A 
ATOM     20  O   UNL     1       6.648  22.324  -2.393  1.00  0.00    -0.467 OA
ATOM     21  C   UNL     1       6.187  22.990  -0.300  1.00  0.00    +0.042 A 
ATOM     22  C   UNL     1       7.113  22.390  -1.120  1.00  0.00    +0.195 A 
ENDBRANCH  17  18
ENDBRANCH   5  17
TORSDOF 4
ENDMDL
MODEL 5
REMARK VINA RESULT:    -5.140     17.618     18.958
REMARK INTER + INTRA:          -6.940
REMARK INTER:                  -6.225
REMARK INTRA:                  -0.715
REMARK UNBOUND:                -0.599
REMARK SMILES CCCc1nc2c(c(=O)n(C)c(=O)n2C)n1Cc1ccco1
REMARK SMILES IDX 4 1 5 2 6 3 7 4 16 5 8 6 9 7 10 8 11 9 12 10 13 11 14 12
REMARK SMILES IDX 15 13 3 14 2 15 1 16 17 17 18 18 19 19 22 20 20 21 21 22
REMARK H PARENT
ROOT
ATOM      1  C   UNL     1      13.472  31.608  10.450  1.00  0.00    +0.112 A 
ATOM      2  N   UNL     1      14.587  32.180  10.029  1.00  0.00    -0.215 NA
ATOM      3  C   UNL     1      15.512  31.186  10.009  1.00  0.00    +0.168 A 
ATOM      4  C   UNL     1      14.986  29.991  10.391  1.00  0.00    +0.153 A 
ATOM      5  N   UNL     1      13.677  30.259  10.702  1.00  0.00    -0.314 N 
ATOM      6  C   UNL     1      15.750  28.790  10.423  1.00  0.00    +0.282 C 
ATOM      7  O   UNL     1      15.265  27.688  10.663  1.00  0.00    -0.267 OA
ATOM      8  N   UNL     1      17.100  28.993  10.113  1.00  0.00    -0.261 N 
ATOM      9  C   UNL     1      17.973  27.837  10.130  1.00  0.00    +0.159 C 
ATOM     10  C   UNL     1      17.663  30.203   9.665  1.00  0.00    +0.332 C 
ATOM     11  O   UNL     1      18.843  30.264   9.307  1.00  0.00    -0.247 OA
ATOM     12  N   UNL     1      16.828  31.320   9.635  1.00  0.00    -0.279 N 
ATOM     13  C   UNL     1      17.333  32.610   9.204  1.00  0.00    +0.157 C 
ENDROOT
BRANCH   1  14
ATOM     14  C   UNL     1      12.172  32.322  10.629  1.00  0.00    +0.075 C 
BRANCH  14  15
ATOM     15  C   UNL     1      12.162  33.143  11.918  1.00  0.00    +0.005 C 
ATOM     16  C   UNL     1      10.996  34.116  11.950  1.00  0.00    +0.004 C 
ENDBRANCH  14  15
ENDBRANCH   1  14
BRANCH   5  17
ATOM     17  C   UNL     1      12.690  29.305  11.186  1.00  0.00    +0.199 C 
BRANCH  17  18
ATOM     18  C   UNL     1      12.680  29.252  12.669  1.00  0.00    +0.123 A 
ATOM     19  C   UNL     1      13.322  29.984  13.648  1.00  0.00    +0.047 A 
ATOM     20  O   UNL     1      11.875  28.314  13.248  1.00  0.00    -0.467 OA
ATOM     21  C   UNL     1      12.893  29.456  14.890  1.00  0.00    +0.042 A 
ATOM     22  C   UNL     1      12.013  28.443  14.592  1.00  0.00    +0.195 A 
ENDBRANCH  17  18
ENDBRANCH   5  17
TORSDOF 4
ENDMDL
MODEL 6
REMARK VINA RESULT:    -5.117     18.053     19.551
REMARK INTER + INTRA:          -6.913
REMARK INTER:                  -6.329
REMARK INTRA:                  -0.583
REMARK UNBOUND:                -0.599
REMARK SMILES CCCc1nc2c(c(=O)n(C)c(=O)n2C)n1Cc1ccco1
REMARK SMILES IDX 4 1 5 2 6 3 7 4 16 5 8 6 9 7 10 8 11 9 12 10 13 11 14 12
REMARK SMILES IDX 15 13 3 14 2 15 1 16 17 17 18 18 19 19 22 20 20 21 21 22
REMARK H PARENT
ROOT
ATOM      1  C   UNL     1      13.625  30.001  12.895  1.00  0.00    +0.112 A 
ATOM      2  N   UNL     1      14.266  29.069  12.210  1.00  0.00    -0.215 NA
ATOM      3  C   UNL     1      15.112  29.748  11.393  1.00  0.00    +0.168 A 
ATOM      4  C   UNL     1      15.026  31.093  11.571  1.00  0.00    +0.153 A 
ATOM      5  N   UNL     1      14.051  31.267  12.521  1.00  0.00    -0.314 N 
ATOM      6  C   UNL     1      15.835  32.017  10.851  1.00  0.00    +0.282 C 
ATOM      7  O   UNL     1      15.845  33.224  11.077  1.00  0.00    -0.267 OA
ATOM      8  N   UNL     1      16.645  31.401   9.890  1.00  0.00    -0.261 N 
ATOM      9  C   UNL     1      17.501  32.252   9.089  1.00  0.00    +0.159 C 
ATOM     10  C   UNL     1      16.794  30.011   9.716  1.00  0.00    +0.332 C 
ATOM     11  O   UNL     1      17.616  29.553   8.917  1.00  0.00    -0.247 OA
ATOM     12  N   UNL     1      15.982  29.183  10.491  1.00  0.00    -0.279 N 
ATOM     13  C   UNL     1      16.059  27.740  10.360  1.00  0.00    +0.157 C 
ENDROOT
BRANCH   1  14
ATOM     14  C   UNL     1      12.583  29.722  13.931  1.00  0.00    +0.075 C 
BRANCH  14  15
ATOM     15  C   UNL     1      12.015  28.312  13.780  1.00  0.00    +0.005 C 
ATOM     16  C   UNL     1      10.963  28.020  14.837  1.00  0.00    +0.004 C 
ENDBRANCH  14  15
ENDBRANCH   1  14
BRANCH   5  17
ATOM     17  C   UNL     1      13.571  32.537  13.046  1.00  0.00    +0.199 C 
BRANCH  17  18
ATOM     18  C   UNL     1      12.439  33.054  12.239  1.00  0.00    +0.123 A 
ATOM     19  C   UNL     1      12.016  32.830  10.944  1.00  0.00    +0.047 A 
ATOM     20  O   UNL     1      11.591  33.929  12.856  1.00  0.00    -0.467 OA
ATOM     21  C   UNL     1      10.855  33.619  10.759  1.00  0.00    +0.042 A 
ATOM     22  C   UNL     1      10.638  34.267  11.951  1.00  0.00    +0.195 A 
ENDBRANCH  17  18
ENDBRANCH   5  17
TORSDOF 4
ENDMDL
MODEL 7
REMARK VINA RESULT:    -4.989     17.862     19.331
REMARK INTER + INTRA:          -6.754
REMARK INTER:                  -6.291
REMARK INTRA:                  -0.463
REMARK UNBOUND:                -0.599
REMARK SMILES CCCc1nc2c(c(=O)n(C)c(=O)n2C)n1Cc1ccco1
REMARK SMILES IDX 4 1 5 2 6 3 7 4 16 5 8 6 9 7 10 8 11 9 12 10 13 11 14 12
REMARK SMILES IDX 15 13 3 14 2 15 1 16 17 17 18 18 19 19 22 20 20 21 21 22
REMARK H PARENT
ROOT
ATOM      1  C   UNL     1      13.080  31.562  11.857  1.00  0.00    +0.112 A 
ATOM      2  N   UNL     1      12.895  30.634  12.781  1.00  0.00    -0.215 NA
ATOM      3  C   UNL     1      13.643  29.575  12.376  1.00  0.00    +0.168 A 
ATOM      4  C   UNL     1      14.313  29.834  11.220  1.00  0.00    +0.153 A 
ATOM      5  N   UNL     1      13.936  31.105  10.865  1.00  0.00    -0.314 N 
ATOM      6  C   UNL     1      15.187  28.891  10.611  1.00  0.00    +0.282 C 
ATOM      7  O   UNL     1      15.879  29.147   9.629  1.00  0.00    -0.267 OA
ATOM      8  N   UNL     1      15.206  27.657  11.272  1.00  0.00    -0.261 N 
ATOM      9  C   UNL     1      16.054  26.617  10.726  1.00  0.00    +0.159 C 
ATOM     10  C   UNL     1      14.566  27.374  12.494  1.00  0.00    +0.332 C 
ATOM     11  O   UNL     1      14.728  26.290  13.063  1.00  0.00    -0.247 OA
ATOM     12  N   UNL     1      13.756  28.374  13.033  1.00  0.00    -0.279 N 
ATOM     13  C   UNL     1      13.046  28.158  14.280  1.00  0.00    +0.157 C 
ENDROOT
BRANCH   1  14
ATOM     14  C   UNL     1      12.449  32.917  11.883  1.00  0.00    +0.075 C 
BRANCH  14  15
ATOM     15  C   UNL     1      11.387  33.054  10.793  1.00  0.00    +0.005 C 
ATOM     16  C   UNL     1      10.321  34.067  11.180  1.00  0.00    +0.004 C 
ENDBRANCH  14  15
ENDBRANCH   1  14
BRANCH   5  17
ATOM     17  C   UNL     1      14.366  31.836   9.683  1.00  0.00    +0.199 C 
BRANCH  17  18
ATOM     18  C   UNL     1      15.570  32.654   9.969  1.00  0.00    +0.123 A 
ATOM     19  C   UNL     1      16.176  33.074  11.136  1.00  0.00    +0.047 A 
ATOM     20  O   UNL     1      16.282  33.102   8.893  1.00  0.00    -0.467 OA
ATOM     21  C   UNL     1      17.311  33.828  10.751  1.00  0.00    +0.042 A 
ATOM     22  C   UNL     1      17.331  33.814   9.376  1.00  0.00    +0.195 A 
ENDBRANCH  17  18
ENDBRANCH   5  17
TORSDOF 4
ENDMDL
MODEL 8
REMARK VINA RESULT:    -4.858     18.232     19.422
REMARK INTER + INTRA:          -6.593
REMARK INTER:                  -5.997
REMARK INTRA:                  -0.596
REMARK UNBOUND:                -0.599
REMARK SMILES CCCc1nc2c(c(=O)n(C)c(=O)n2C)n1Cc1ccco1
REMARK SMILES IDX 4 1 5 2 6 3 7 4 16 5 8 6 9 7 10 8 11 9 12 10 13 11 14 12
REMARK SMILES IDX 15 13 3 14 2 15 1 16 17 17 18 18 19 19 22 20 20 21 21 22
REMARK H PARENT
ROOT
ATOM      1  C   UNL     1      15.541  31.774  11.080  1.00  0.00    +0.112 A 
ATOM      2  N   UNL     1      15.981  30.583  10.714  1.00  0.00    -0.215 NA
ATOM      3  C   UNL     1      15.338  29.702  11.524  1.00  0.00    +0.168 A 
ATOM      4  C   UNL     1      14.482  30.324  12.378  1.00  0.00    +0.153 A 
ATOM      5  N   UNL     1      14.625  31.664  12.116  1.00  0.00    -0.314 N 
ATOM      6  C   UNL     1      13.670  29.613  13.306  1.00  0.00    +0.282 C 
ATOM      7  O   UNL     1      12.818  30.150  14.008  1.00  0.00    -0.267 OA
ATOM      8  N   UNL     1      13.918  28.235  13.304  1.00  0.00    -0.261 N 
ATOM      9  C   UNL     1      13.154  27.415  14.223  1.00  0.00    +0.159 C 
ATOM     10  C   UNL     1      14.757  27.556  12.399  1.00  0.00    +0.332 C 
ATOM     11  O   UNL     1      14.831  26.324  12.400  1.00  0.00    -0.247 OA
ATOM     12  N   UNL     1      15.488  28.336  11.504  1.00  0.00    -0.279 N 
ATOM     13  C   UNL     1      16.391  27.718  10.551  1.00  0.00    +0.157 C 
ENDROOT
BRANCH   1  14
ATOM     14  C   UNL     1      15.974  33.063  10.457  1.00  0.00    +0.075 C 
BRANCH  14  15
ATOM     15  C   UNL     1      16.193  32.906   8.954  1.00  0.00    +0.005 C 
ATOM     16  C   UNL     1      16.983  34.072   8.382  1.00  0.00    +0.004 C 
ENDBRANCH  14  15
ENDBRANCH   1  14
BRANCH   5  17
ATOM     17  C   UNL     1      13.934  32.755  12.786  1.00  0.00    +0.199 C 
BRANCH  17  18
ATOM     18  C   UNL     1      12.685  33.116  12.071  1.00  0.00    +0.123 A 
ATOM     19  C   UNL     1      12.129  32.717  10.872  1.00  0.00    +0.047 A 
ATOM     20  O   UNL     1      11.861  34.016  12.684  1.00  0.00    -0.467 OA
ATOM     21  C   UNL     1      10.908  33.421  10.742  1.00  0.00    +0.042 A 
ATOM     22  C   UNL     1      10.790  34.197  11.871  1.00  0.00    +0.195 A 
ENDBRANCH  17  18
ENDBRANCH   5  17
TORSDOF 4
ENDMDL
MODEL 9
REMARK VINA RESULT:    -4.788     17.146     19.329
REMARK INTER + INTRA:          -6.506
REMARK INTER:                  -5.868
REMARK INTRA:                  -0.638
REMARK UNBOUND:                -0.599
REMARK SMILES CCCc1nc2c(c(=O)n(C)c(=O)n2C)n1Cc1ccco1
REMARK SMILES IDX 4 1 5 2 6 3 7 4 16 5 8 6 9 7 10 8 11 9 12 10 13 11 14 12
REMARK SMILES IDX 15 13 3 14 2 15 1 16 17 17 18 18 19 19 22 20 20 21 21 22
REMARK H PARENT
ROOT
ATOM      1  C   UNL     1      14.335  31.025  10.157  1.00  0.00    +0.112 A 
ATOM      2  N   UNL     1      14.056  29.737  10.040  1.00  0.00    -0.215 NA
ATOM      3  C   UNL     1      15.194  29.092  10.402  1.00  0.00    +0.168 A 
ATOM      4  C   UNL     1      16.178  29.957  10.767  1.00  0.00    +0.153 A 
ATOM      5  N   UNL     1      15.641  31.207  10.588  1.00  0.00    -0.314 N 
ATOM      6  C   UNL     1      17.457  29.522  11.217  1.00  0.00    +0.282 C 
ATOM      7  O   UNL     1      18.316  30.285  11.649  1.00  0.00    -0.267 OA
ATOM      8  N   UNL     1      17.615  28.132  11.151  1.00  0.00    -0.261 N 
ATOM      9  C   UNL     1      18.886  27.581  11.573  1.00  0.00    +0.159 C 
ATOM     10  C   UNL     1      16.602  27.209  10.829  1.00  0.00    +0.332 C 
ATOM     11  O   UNL     1      16.800  25.992  10.904  1.00  0.00    -0.247 OA
ATOM     12  N   UNL     1      15.370  27.729  10.432  1.00  0.00    -0.279 N 
ATOM     13  C   UNL     1      14.278  26.847  10.063  1.00  0.00    +0.157 C 
ENDROOT
BRANCH   1  14
ATOM     14  C   UNL     1      13.371  32.128   9.864  1.00  0.00    +0.075 C 
BRANCH  14  15
ATOM     15  C   UNL     1      12.157  32.066  10.790  1.00  0.00    +0.005 C 
ATOM     16  C   UNL     1      11.411  33.390  10.820  1.00  0.00    +0.004 C 
ENDBRANCH  14  15
ENDBRANCH   1  14
BRANCH   5  17
ATOM     17  C   UNL     1      16.310  32.478  10.823  1.00  0.00    +0.199 C 
BRANCH  17  18
ATOM     18  C   UNL     1      16.863  33.031   9.562  1.00  0.00    +0.123 A 
ATOM     19  C   UNL     1      16.661  34.211   8.875  1.00  0.00    +0.047 A 
ATOM     20  O   UNL     1      17.783  32.266   8.904  1.00  0.00    -0.467 OA
ATOM     21  C   UNL     1      17.494  34.157   7.731  1.00  0.00    +0.042 A 
ATOM     22  C   UNL     1      18.157  32.954   7.796  1.00  0.00    +0.195 A 
ENDBRANCH  17  18
ENDBRANCH   5  17
TORSDOF 4
ENDMDL
