MODEL 1
REMARK VINA RESULT:    -9.114      0.000      0.000
REMARK INTER + INTRA:         -12.197
REMARK INTER:                 -11.245
REMARK INTRA:                  -0.952
REMARK UNBOUND:                -0.952
REMARK SMILES Fc1ccc(C2CCNC2COc2ccc3c(c2)OCO3)cc1
REMARK SMILES IDX 6 1 7 2 8 3 9 4 10 5 5 7 2 8 3 9 23 10 4 11 22 12 1 13 11 14
REMARK SMILES IDX 12 15 13 16 18 17 14 18 17 19 15 20 16 21 19 22 21 23 20 24
REMARK H PARENT 9 6
ROOT
ATOM      1  C   UNL     1      -9.402 -13.297  30.869  1.00  0.00    +0.041 C 
ATOM      2  C   UNL     1      -8.752 -14.245  29.863  1.00  0.00    +0.025 C 
ATOM      3  C   UNL     1      -7.345 -13.686  29.768  1.00  0.00    +0.082 C 
ATOM      4  N   UNL     1      -7.006 -13.373  31.152  1.00  0.00    -0.310 NA
ATOM      5  C   UNL     1      -8.250 -12.961  31.843  1.00  0.00    +0.099 C 
ATOM      6  H   UNL     1      -6.289 -12.651  31.221  1.00  0.00    +0.123 HD
ENDROOT
BRANCH   1   7
ATOM      7  C   UNL     1     -10.647 -13.840  31.535  1.00  0.00    -0.043 A 
ATOM      8  C   UNL     1     -12.947 -14.886  32.737  1.00  0.00    +0.123 A 
ATOM      9  C   UNL     1     -11.944 -15.747  32.310  1.00  0.00    +0.039 A 
ATOM     10  C   UNL     1     -12.823 -13.512  32.577  1.00  0.00    +0.039 A 
ATOM     11  C   UNL     1     -10.797 -15.226  31.711  1.00  0.00    +0.007 A 
ATOM     12  C   UNL     1     -11.676 -12.990  31.977  1.00  0.00    +0.007 A 
ATOM     13  F   UNL     1     -14.049 -15.387  33.311  1.00  0.00    -0.207 F 
ENDBRANCH   1   7
BRANCH   5  14
ATOM     14  C   UNL     1      -8.270 -11.470  32.235  1.00  0.00    +0.249 C 
BRANCH  14  15
ATOM     15  O   UNL     1      -8.652 -10.641  31.134  1.00  0.00    -0.492 OA
BRANCH  15  16
ATOM     16  C   UNL     1      -9.300  -9.464  31.393  1.00  0.00    +0.123 A 
ATOM     17  C   UNL     1     -10.585  -9.626  31.927  1.00  0.00    +0.097 A 
ATOM     18  C   UNL     1      -8.796  -8.170  31.164  1.00  0.00    +0.050 A 
ATOM     19  C   UNL     1     -11.319  -8.496  32.218  1.00  0.00    +0.169 A 
ATOM     20  C   UNL     1      -9.565  -7.038  31.469  1.00  0.00    +0.054 A 
ATOM     21  C   UNL     1     -10.821  -7.235  31.996  1.00  0.00    +0.166 A 
ATOM     22  O   UNL     1     -12.575  -8.474  32.739  1.00  0.00    -0.453 OA
ATOM     23  O   UNL     1     -11.700  -6.259  32.348  1.00  0.00    -0.454 OA
ATOM     24  C   UNL     1     -12.811  -7.052  32.815  1.00  0.00    +0.468 C 
ENDBRANCH  15  16
ENDBRANCH  14  15
ENDBRANCH   5  14
TORSDOF 4
ENDMDL
MODEL 2
REMARK VINA RESULT:    -9.037      2.602      4.277
REMARK INTER + INTRA:         -12.102
REMARK INTER:                 -11.360
REMARK INTRA:                  -0.742
REMARK UNBOUND:                -0.952
REMARK SMILES Fc1ccc(C2CCNC2COc2ccc3c(c2)OCO3)cc1
REMARK SMILES IDX 6 1 7 2 8 3 9 4 10 5 5 7 2 8 3 9 23 10 4 11 22 12 1 13 11 14
REMARK SMILES IDX 12 15 13 16 18 17 14 18 17 19 15 20 16 21 19 22 21 23 20 24
REMARK H PARENT 9 6
ROOT
ATOM      1  C   UNL     1     -10.894 -13.613  32.440  1.00  0.00    +0.041 C 
ATOM      2  C   UNL     1     -11.769 -14.832  32.155  1.00  0.00    +0.025 C 
ATOM      3  C   UNL     1     -13.121 -14.375  32.669  1.00  0.00    +0.082 C 
ATOM      4  N   UNL     1     -13.215 -12.995  32.207  1.00  0.00    -0.310 NA
ATOM      5  C   UNL     1     -11.848 -12.421  32.206  1.00  0.00    +0.099 C 
ATOM      6  H   UNL     1     -13.849 -12.437  32.779  1.00  0.00    +0.123 HD
ENDROOT
BRANCH   1   7
ATOM      7  C   UNL     1      -9.611 -13.555  31.639  1.00  0.00    -0.043 A 
ATOM      8  C   UNL     1      -7.240 -13.499  30.155  1.00  0.00    +0.123 A 
ATOM      9  C   UNL     1      -8.190 -14.477  29.893  1.00  0.00    +0.039 A 
ATOM     10  C   UNL     1      -7.451 -12.547  31.144  1.00  0.00    +0.039 A 
ATOM     11  C   UNL     1      -9.373 -14.506  30.633  1.00  0.00    +0.007 A 
ATOM     12  C   UNL     1      -8.634 -12.574  31.884  1.00  0.00    +0.007 A 
ATOM     13  F   UNL     1      -6.105 -13.474  29.446  1.00  0.00    -0.207 F 
ENDBRANCH   1   7
BRANCH   5  14
ATOM     14  C   UNL     1     -11.642 -11.325  33.270  1.00  0.00    +0.249 C 
BRANCH  14  15
ATOM     15  O   UNL     1     -12.319 -10.115  32.919  1.00  0.00    -0.492 OA
BRANCH  15  16
ATOM     16  C   UNL     1     -11.578  -9.055  32.473  1.00  0.00    +0.123 A 
ATOM     17  C   UNL     1     -10.214  -9.335  32.324  1.00  0.00    +0.097 A 
ATOM     18  C   UNL     1     -12.064  -7.767  32.179  1.00  0.00    +0.050 A 
ATOM     19  C   UNL     1      -9.384  -8.326  31.884  1.00  0.00    +0.169 A 
ATOM     20  C   UNL     1     -11.198  -6.760  31.733  1.00  0.00    +0.054 A 
ATOM     21  C   UNL     1      -9.863  -7.072  31.594  1.00  0.00    +0.166 A 
ATOM     22  O   UNL     1      -8.042  -8.428  31.684  1.00  0.00    -0.453 OA
ATOM     23  O   UNL     1      -8.886  -6.225  31.177  1.00  0.00    -0.454 OA
ATOM     24  C   UNL     1      -7.734  -7.091  31.239  1.00  0.00    +0.468 C 
ENDBRANCH  15  16
ENDBRANCH  14  15
ENDBRANCH   5  14
TORSDOF 4
ENDMDL
MODEL 3
REMARK VINA RESULT:    -8.878      2.018      2.948
REMARK INTER + INTRA:         -11.906
REMARK INTER:                 -11.432
REMARK INTRA:                  -0.475
REMARK UNBOUND:                -0.952
REMARK SMILES Fc1ccc(C2CCNC2COc2ccc3c(c2)OCO3)cc1
REMARK SMILES IDX 6 1 7 2 8 3 9 4 10 5 5 7 2 8 3 9 23 10 4 11 22 12 1 13 11 14
REMARK SMILES IDX 12 15 13 16 18 17 14 18 17 19 15 20 16 21 19 22 21 23 20 24
REMARK H PARENT 9 6
ROOT
ATOM      1  C   UNL     1      -9.982 -13.597  31.125  1.00  0.00    +0.041 C 
ATOM      2  C   UNL     1      -8.821 -14.531  30.790  1.00  0.00    +0.025 C 
ATOM      3  C   UNL     1      -7.704 -13.550  30.488  1.00  0.00    +0.082 C 
ATOM      4  N   UNL     1      -7.852 -12.534  31.524  1.00  0.00    -0.310 NA
ATOM      5  C   UNL     1      -9.295 -12.412  31.839  1.00  0.00    +0.099 C 
ATOM      6  H   UNL     1      -7.458 -11.636  31.245  1.00  0.00    +0.123 HD
ENDROOT
BRANCH   1   7
ATOM      7  C   UNL     1     -11.103 -14.240  31.913  1.00  0.00    -0.043 A 
ATOM      8  C   UNL     1     -13.177 -15.465  33.334  1.00  0.00    +0.123 A 
ATOM      9  C   UNL     1     -12.277 -16.248  32.624  1.00  0.00    +0.039 A 
ATOM     10  C   UNL     1     -13.061 -14.082  33.350  1.00  0.00    +0.039 A 
ATOM     11  C   UNL     1     -11.242 -15.638  31.914  1.00  0.00    +0.007 A 
ATOM     12  C   UNL     1     -12.026 -13.470  32.641  1.00  0.00    +0.007 A 
ATOM     13  F   UNL     1     -14.171 -16.052  34.013  1.00  0.00    -0.207 F 
ENDBRANCH   1   7
BRANCH   5  14
ATOM     14  C   UNL     1      -9.908 -11.067  31.400  1.00  0.00    +0.249 C 
BRANCH  14  15
ATOM     15  O   UNL     1      -9.724 -10.055  32.394  1.00  0.00    -0.492 OA
BRANCH  15  16
ATOM     16  C   UNL     1      -9.007  -8.937  32.066  1.00  0.00    +0.123 A 
ATOM     17  C   UNL     1      -7.648  -9.014  32.395  1.00  0.00    +0.097 A 
ATOM     18  C   UNL     1      -9.515  -7.771  31.463  1.00  0.00    +0.050 A 
ATOM     19  C   UNL     1      -6.843  -7.932  32.106  1.00  0.00    +0.169 A 
ATOM     20  C   UNL     1      -8.675  -6.685  31.181  1.00  0.00    +0.054 A 
ATOM     21  C   UNL     1      -7.343  -6.798  31.514  1.00  0.00    +0.166 A 
ATOM     22  O   UNL     1      -5.509  -7.842  32.355  1.00  0.00    -0.453 OA
ATOM     23  O   UNL     1      -6.389  -5.851  31.316  1.00  0.00    -0.454 OA
ATOM     24  C   UNL     1      -5.229  -6.518  31.855  1.00  0.00    +0.468 C 
ENDBRANCH  15  16
ENDBRANCH  14  15
ENDBRANCH   5  14
TORSDOF 4
ENDMDL
MODEL 4
REMARK VINA RESULT:    -8.859      4.088      7.630
REMARK INTER + INTRA:         -11.883
REMARK INTER:                 -11.262
REMARK INTRA:                  -0.621
REMARK UNBOUND:                -0.952
REMARK SMILES Fc1ccc(C2CCNC2COc2ccc3c(c2)OCO3)cc1
REMARK SMILES IDX 6 1 7 2 8 3 9 4 10 5 5 7 2 8 3 9 23 10 4 11 22 12 1 13 11 14
REMARK SMILES IDX 12 15 13 16 18 17 14 18 17 19 15 20 16 21 19 22 21 23 20 24
REMARK H PARENT 9 6
ROOT
ATOM      1  C   UNL     1      -8.588  -7.070  31.353  1.00  0.00    +0.041 C 
ATOM      2  C   UNL     1      -9.484  -5.854  31.579  1.00  0.00    +0.025 C 
ATOM      3  C   UNL     1     -10.867  -6.434  31.352  1.00  0.00    +0.082 C 
ATOM      4  N   UNL     1     -10.811  -7.726  32.027  1.00  0.00    -0.310 NA
ATOM      5  C   UNL     1      -9.427  -8.243  31.907  1.00  0.00    +0.099 C 
ATOM      6  H   UNL     1     -11.486  -8.390  31.649  1.00  0.00    +0.123 HD
ENDROOT
BRANCH   1   7
ATOM      7  C   UNL     1      -7.202  -6.953  31.948  1.00  0.00    -0.043 A 
ATOM      8  C   UNL     1      -4.620  -6.741  33.002  1.00  0.00    +0.123 A 
ATOM      9  C   UNL     1      -4.894  -6.211  31.748  1.00  0.00    +0.039 A 
ATOM     10  C   UNL     1      -5.610  -7.373  33.741  1.00  0.00    +0.039 A 
ATOM     11  C   UNL     1      -6.182  -6.317  31.222  1.00  0.00    +0.007 A 
ATOM     12  C   UNL     1      -6.899  -7.479  33.216  1.00  0.00    +0.007 A 
ATOM     13  F   UNL     1      -3.382  -6.640  33.506  1.00  0.00    -0.207 F 
ENDBRANCH   1   7
BRANCH   5  14
ATOM     14  C   UNL     1      -9.311  -9.486  31.003  1.00  0.00    +0.249 C 
BRANCH  14  15
ATOM     15  O   UNL     1      -8.710 -10.585  31.693  1.00  0.00    -0.492 OA
BRANCH  15  16
ATOM     16  C   UNL     1      -9.367 -11.786  31.712  1.00  0.00    +0.123 A 
ATOM     17  C   UNL     1     -10.547 -11.778  32.468  1.00  0.00    +0.097 A 
ATOM     18  C   UNL     1      -8.957 -12.968  31.068  1.00  0.00    +0.050 A 
ATOM     19  C   UNL     1     -11.278 -12.945  32.550  1.00  0.00    +0.169 A 
ATOM     20  C   UNL     1      -9.719 -14.140  31.169  1.00  0.00    +0.054 A 
ATOM     21  C   UNL     1     -10.875 -14.095  31.916  1.00  0.00    +0.166 A 
ATOM     22  O   UNL     1     -12.441 -13.110  33.236  1.00  0.00    -0.453 OA
ATOM     23  O   UNL     1     -11.731 -15.130  32.123  1.00  0.00    -0.454 OA
ATOM     24  C   UNL     1     -12.720 -14.498  32.963  1.00  0.00    +0.468 C 
ENDBRANCH  15  16
ENDBRANCH  14  15
ENDBRANCH   5  14
TORSDOF 4
ENDMDL
MODEL 5
REMARK VINA RESULT:    -8.823      2.961      3.848
REMARK INTER + INTRA:         -11.839
REMARK INTER:                 -11.172
REMARK INTRA:                  -0.667
REMARK UNBOUND:                -0.952
REMARK SMILES Fc1ccc(C2CCNC2COc2ccc3c(c2)OCO3)cc1
REMARK SMILES IDX 6 1 7 2 8 3 9 4 10 5 5 7 2 8 3 9 23 10 4 11 22 12 1 13 11 14
REMARK SMILES IDX 12 15 13 16 18 17 14 18 17 19 15 20 16 21 19 22 21 23 20 24
REMARK H PARENT 9 6
ROOT
ATOM      1  C   UNL     1      -8.256 -13.439  30.557  1.00  0.00    +0.041 C 
ATOM      2  C   UNL     1      -8.350 -14.884  30.072  1.00  0.00    +0.025 C 
ATOM      3  C   UNL     1      -6.930 -15.155  29.615  1.00  0.00    +0.082 C 
ATOM      4  N   UNL     1      -6.112 -14.542  30.656  1.00  0.00    -0.310 NA
ATOM      5  C   UNL     1      -6.838 -13.354  31.164  1.00  0.00    +0.099 C 
ATOM      6  H   UNL     1      -5.183 -14.291  30.320  1.00  0.00    +0.123 HD
ENDROOT
BRANCH   1   7
ATOM      7  C   UNL     1      -9.366 -13.013  31.494  1.00  0.00    -0.043 A 
ATOM      8  C   UNL     1     -11.451 -12.246  33.194  1.00  0.00    +0.123 A 
ATOM      9  C   UNL     1     -11.584 -13.390  32.418  1.00  0.00    +0.039 A 
ATOM     10  C   UNL     1     -10.296 -11.477  33.139  1.00  0.00    +0.039 A 
ATOM     11  C   UNL     1     -10.545 -13.773  31.570  1.00  0.00    +0.007 A 
ATOM     12  C   UNL     1      -9.255 -11.860  32.291  1.00  0.00    +0.007 A 
ATOM     13  F   UNL     1     -12.450 -11.878  34.006  1.00  0.00    -0.207 F 
ENDBRANCH   1   7
BRANCH   5  14
ATOM     14  C   UNL     1      -6.157 -12.019  30.805  1.00  0.00    +0.249 C 
BRANCH  14  15
ATOM     15  O   UNL     1      -5.223 -11.616  31.810  1.00  0.00    -0.492 OA
BRANCH  15  16
ATOM     16  C   UNL     1      -5.125 -10.287  32.120  1.00  0.00    +0.123 A 
ATOM     17  C   UNL     1      -6.341  -9.695  32.486  1.00  0.00    +0.097 A 
ATOM     18  C   UNL     1      -3.952  -9.510  32.086  1.00  0.00    +0.050 A 
ATOM     19  C   UNL     1      -6.344  -8.355  32.812  1.00  0.00    +0.169 A 
ATOM     20  C   UNL     1      -3.984  -8.150  32.422  1.00  0.00    +0.054 A 
ATOM     21  C   UNL     1      -5.195  -7.603  32.782  1.00  0.00    +0.166 A 
ATOM     22  O   UNL     1      -7.431  -7.630  33.190  1.00  0.00    -0.453 OA
ATOM     23  O   UNL     1      -5.412  -6.309  33.136  1.00  0.00    -0.454 OA
ATOM     24  C   UNL     1      -6.832  -6.332  33.390  1.00  0.00    +0.468 C 
ENDBRANCH  15  16
ENDBRANCH  14  15
ENDBRANCH   5  14
TORSDOF 4
ENDMDL
MODEL 6
REMARK VINA RESULT:    -8.820      3.804      7.767
REMARK INTER + INTRA:         -11.835
REMARK INTER:                 -11.143
REMARK INTRA:                  -0.693
REMARK UNBOUND:                -0.952
REMARK SMILES Fc1ccc(C2CCNC2COc2ccc3c(c2)OCO3)cc1
REMARK SMILES IDX 6 1 7 2 8 3 9 4 10 5 5 7 2 8 3 9 23 10 4 11 22 12 1 13 11 14
REMARK SMILES IDX 12 15 13 16 18 17 14 18 17 19 15 20 16 21 19 22 21 23 20 24
REMARK H PARENT 9 6
ROOT
ATOM      1  C   UNL     1     -10.484  -8.338  31.519  1.00  0.00    +0.041 C 
ATOM      2  C   UNL     1     -11.562  -7.328  31.909  1.00  0.00    +0.025 C 
ATOM      3  C   UNL     1     -12.683  -8.232  32.384  1.00  0.00    +0.082 C 
ATOM      4  N   UNL     1     -11.993  -9.252  33.166  1.00  0.00    -0.310 NA
ATOM      5  C   UNL     1     -10.661  -9.471  32.554  1.00  0.00    +0.099 C 
ATOM      6  H   UNL     1     -12.522 -10.122  33.221  1.00  0.00    +0.123 HD
ENDROOT
BRANCH   1   7
ATOM      7  C   UNL     1      -9.084  -7.770  31.444  1.00  0.00    -0.043 A 
ATOM      8  C   UNL     1      -6.514  -6.677  31.287  1.00  0.00    +0.123 A 
ATOM      9  C   UNL     1      -7.594  -5.851  31.567  1.00  0.00    +0.039 A 
ATOM     10  C   UNL     1      -6.691  -8.039  31.086  1.00  0.00    +0.039 A 
ATOM     11  C   UNL     1      -8.876  -6.395  31.645  1.00  0.00    +0.007 A 
ATOM     12  C   UNL     1      -7.973  -8.585  31.164  1.00  0.00    +0.007 A 
ATOM     13  F   UNL     1      -5.283  -6.153  31.211  1.00  0.00    -0.207 F 
ENDBRANCH   1   7
BRANCH   5  14
ATOM     14  C   UNL     1     -10.509 -10.856  31.895  1.00  0.00    +0.249 C 
BRANCH  14  15
ATOM     15  O   UNL     1      -9.482 -11.629  32.523  1.00  0.00    -0.492 OA
BRANCH  15  16
ATOM     16  C   UNL     1      -8.848 -12.595  31.790  1.00  0.00    +0.123 A 
ATOM     17  C   UNL     1      -7.478 -12.367  31.609  1.00  0.00    +0.097 A 
ATOM     18  C   UNL     1      -9.447 -13.737  31.226  1.00  0.00    +0.050 A 
ATOM     19  C   UNL     1      -6.753 -13.285  30.880  1.00  0.00    +0.169 A 
ATOM     20  C   UNL     1      -8.686 -14.655  30.489  1.00  0.00    +0.054 A 
ATOM     21  C   UNL     1      -7.341 -14.400  30.335  1.00  0.00    +0.166 A 
ATOM     22  O   UNL     1      -5.421 -13.218  30.613  1.00  0.00    -0.453 OA
ATOM     23  O   UNL     1      -6.457 -15.176  29.655  1.00  0.00    -0.454 OA
ATOM     24  C   UNL     1      -5.242 -14.418  29.832  1.00  0.00    +0.468 C 
ENDBRANCH  15  16
ENDBRANCH  14  15
ENDBRANCH   5  14
TORSDOF 4
ENDMDL
MODEL 7
REMARK VINA RESULT:    -8.769      2.734      5.937
REMARK INTER + INTRA:         -11.772
REMARK INTER:                 -10.948
REMARK INTRA:                  -0.824
REMARK UNBOUND:                -0.952
REMARK SMILES Fc1ccc(C2CCNC2COc2ccc3c(c2)OCO3)cc1
REMARK SMILES IDX 6 1 7 2 8 3 9 4 10 5 5 7 2 8 3 9 23 10 4 11 22 12 1 13 11 14
REMARK SMILES IDX 12 15 13 16 18 17 14 18 17 19 15 20 16 21 19 22 21 23 20 24
REMARK H PARENT 9 6
ROOT
ATOM      1  C   UNL     1     -11.267 -11.456  33.288  1.00  0.00    +0.041 C 
ATOM      2  C   UNL     1     -12.330 -10.365  33.404  1.00  0.00    +0.025 C 
ATOM      3  C   UNL     1     -11.597  -9.153  32.862  1.00  0.00    +0.082 C 
ATOM      4  N   UNL     1     -10.879  -9.676  31.705  1.00  0.00    -0.310 NA
ATOM      5  C   UNL     1     -10.505 -11.080  31.999  1.00  0.00    +0.099 C 
ATOM      6  H   UNL     1     -10.059  -9.116  31.472  1.00  0.00    +0.123 HD
ENDROOT
BRANCH   1   7
ATOM      7  C   UNL     1     -11.808 -12.869  33.308  1.00  0.00    -0.043 A 
ATOM      8  C   UNL     1     -12.785 -15.489  33.390  1.00  0.00    +0.123 A 
ATOM      9  C   UNL     1     -12.664 -14.765  34.569  1.00  0.00    +0.039 A 
ATOM     10  C   UNL     1     -12.429 -14.930  32.170  1.00  0.00    +0.039 A 
ATOM     11  C   UNL     1     -12.177 -13.458  34.529  1.00  0.00    +0.007 A 
ATOM     12  C   UNL     1     -11.941 -13.622  32.129  1.00  0.00    +0.007 A 
ATOM     13  F   UNL     1     -13.252 -16.744  33.430  1.00  0.00    -0.207 F 
ENDBRANCH   1   7
BRANCH   5  14
ATOM     14  C   UNL     1      -8.987 -11.287  32.169  1.00  0.00    +0.249 C 
BRANCH  14  15
ATOM     15  O   UNL     1      -8.654 -12.673  32.289  1.00  0.00    -0.492 OA
BRANCH  15  16
ATOM     16  C   UNL     1      -8.163 -13.327  31.192  1.00  0.00    +0.123 A 
ATOM     17  C   UNL     1      -6.856 -12.959  30.846  1.00  0.00    +0.097 A 
ATOM     18  C   UNL     1      -8.847 -14.286  30.421  1.00  0.00    +0.050 A 
ATOM     19  C   UNL     1      -6.276 -13.562  29.750  1.00  0.00    +0.169 A 
ATOM     20  C   UNL     1      -8.232 -14.883  29.311  1.00  0.00    +0.054 A 
ATOM     21  C   UNL     1      -6.946 -14.500  29.004  1.00  0.00    +0.166 A 
ATOM     22  O   UNL     1      -5.021 -13.324  29.281  1.00  0.00    -0.453 OA
ATOM     23  O   UNL     1      -6.200 -14.971  27.969  1.00  0.00    -0.454 OA
ATOM     24  C   UNL     1      -4.983 -14.218  28.150  1.00  0.00    +0.468 C 
ENDBRANCH  15  16
ENDBRANCH  14  15
ENDBRANCH   5  14
TORSDOF 4
ENDMDL
MODEL 8
REMARK VINA RESULT:    -8.598      3.200      5.464
REMARK INTER + INTRA:         -11.561
REMARK INTER:                 -10.684
REMARK INTRA:                  -0.876
REMARK UNBOUND:                -0.952
REMARK SMILES Fc1ccc(C2CCNC2COc2ccc3c(c2)OCO3)cc1
REMARK SMILES IDX 6 1 7 2 8 3 9 4 10 5 5 7 2 8 3 9 23 10 4 11 22 12 1 13 11 14
REMARK SMILES IDX 12 15 13 16 18 17 14 18 17 19 15 20 16 21 19 22 21 23 20 24
REMARK H PARENT 9 6
ROOT
ATOM      1  C   UNL     1     -11.052  -9.219  32.436  1.00  0.00    +0.041 C 
ATOM      2  C   UNL     1     -12.405  -8.856  33.044  1.00  0.00    +0.025 C 
ATOM      3  C   UNL     1     -12.508  -7.377  32.724  1.00  0.00    +0.082 C 
ATOM      4  N   UNL     1     -12.014  -7.288  31.354  1.00  0.00    -0.310 NA
ATOM      5  C   UNL     1     -10.971  -8.326  31.178  1.00  0.00    +0.099 C 
ATOM      6  H   UNL     1     -11.652  -6.360  31.133  1.00  0.00    +0.123 HD
ENDROOT
BRANCH   1   7
ATOM      7  C   UNL     1     -10.853 -10.695  32.171  1.00  0.00    -0.043 A 
ATOM      8  C   UNL     1     -10.499 -13.435  31.730  1.00  0.00    +0.123 A 
ATOM      9  C   UNL     1     -11.464 -13.005  32.631  1.00  0.00    +0.039 A 
ATOM     10  C   UNL     1      -9.707 -12.523  31.043  1.00  0.00    +0.039 A 
ATOM     11  C   UNL     1     -11.641 -11.638  32.851  1.00  0.00    +0.007 A 
ATOM     12  C   UNL     1      -9.884 -11.156  31.263  1.00  0.00    +0.007 A 
ATOM     13  F   UNL     1     -10.328 -14.747  31.520  1.00  0.00    -0.207 F 
ENDBRANCH   1   7
BRANCH   5  14
ATOM     14  C   UNL     1      -9.554  -7.748  30.995  1.00  0.00    +0.249 C 
BRANCH  14  15
ATOM     15  O   UNL     1      -8.978  -7.359  32.245  1.00  0.00    -0.492 OA
BRANCH  15  16
ATOM     16  C   UNL     1      -7.622  -7.457  32.401  1.00  0.00    +0.123 A 
ATOM     17  C   UNL     1      -7.100  -8.718  32.087  1.00  0.00    +0.097 A 
ATOM     18  C   UNL     1      -6.760  -6.434  32.841  1.00  0.00    +0.050 A 
ATOM     19  C   UNL     1      -5.742  -8.915  32.217  1.00  0.00    +0.169 A 
ATOM     20  C   UNL     1      -5.383  -6.662  32.964  1.00  0.00    +0.054 A 
ATOM     21  C   UNL     1      -4.905  -7.913  32.643  1.00  0.00    +0.166 A 
ATOM     22  O   UNL     1      -5.075 -10.071  31.954  1.00  0.00    -0.453 OA
ATOM     23  O   UNL     1      -3.607  -8.310  32.704  1.00  0.00    -0.454 OA
ATOM     24  C   UNL     1      -3.723  -9.680  32.269  1.00  0.00    +0.468 C 
ENDBRANCH  15  16
ENDBRANCH  14  15
ENDBRANCH   5  14
TORSDOF 4
ENDMDL
MODEL 9
REMARK VINA RESULT:    -6.845      3.374      5.182
REMARK INTER + INTRA:          -9.398
REMARK INTER:                  -8.478
REMARK INTRA:                  -0.919
REMARK UNBOUND:                -0.952
REMARK SMILES Fc1ccc(C2CCNC2COc2ccc3c(c2)OCO3)cc1
REMARK SMILES IDX 6 1 7 2 8 3 9 4 10 5 5 7 2 8 3 9 23 10 4 11 22 12 1 13 11 14
REMARK SMILES IDX 12 15 13 16 18 17 14 18 17 19 15 20 16 21 19 22 21 23 20 24
REMARK H PARENT 9 6
ROOT
ATOM      1  C   UNL     1      -9.741 -11.015  32.475  1.00  0.00    +0.041 C 
ATOM      2  C   UNL     1     -10.822 -11.366  33.496  1.00  0.00    +0.025 C 
ATOM      3  C   UNL     1     -11.631 -10.084  33.550  1.00  0.00    +0.082 C 
ATOM      4  N   UNL     1     -11.725  -9.679  32.152  1.00  0.00    -0.310 NA
ATOM      5  C   UNL     1     -10.477 -10.099  31.472  1.00  0.00    +0.099 C 
ATOM      6  H   UNL     1     -11.881  -8.676  32.049  1.00  0.00    +0.123 HD
ENDROOT
BRANCH   1   7
ATOM      7  C   UNL     1      -9.053 -12.207  31.848  1.00  0.00    -0.043 A 
ATOM      8  C   UNL     1      -7.746 -14.381  30.668  1.00  0.00    +0.123 A 
ATOM      9  C   UNL     1      -7.008 -13.281  31.084  1.00  0.00    +0.039 A 
ATOM     10  C   UNL     1      -9.124 -14.418  30.830  1.00  0.00    +0.039 A 
ATOM     11  C   UNL     1      -7.659 -12.196  31.673  1.00  0.00    +0.007 A 
ATOM     12  C   UNL     1      -9.777 -13.334  31.419  1.00  0.00    +0.007 A 
ATOM     13  F   UNL     1      -7.120 -15.421  30.101  1.00  0.00    -0.207 F 
ENDBRANCH   1   7
BRANCH   5  14
ATOM     14  C   UNL     1      -9.586  -8.918  31.038  1.00  0.00    +0.249 C 
BRANCH  14  15
ATOM     15  O   UNL     1      -9.411  -7.974  32.098  1.00  0.00    -0.492 OA
BRANCH  15  16
ATOM     16  C   UNL     1      -8.151  -7.508  32.359  1.00  0.00    +0.123 A 
ATOM     17  C   UNL     1      -7.142  -8.466  32.194  1.00  0.00    +0.097 A 
ATOM     18  C   UNL     1      -7.816  -6.204  32.771  1.00  0.00    +0.050 A 
ATOM     19  C   UNL     1      -5.838  -8.091  32.438  1.00  0.00    +0.169 A 
ATOM     20  C   UNL     1      -6.481  -5.850  33.013  1.00  0.00    +0.054 A 
ATOM     21  C   UNL     1      -5.516  -6.817  32.836  1.00  0.00    +0.166 A 
ATOM     22  O   UNL     1      -4.744  -8.892  32.324  1.00  0.00    -0.453 OA
ATOM     23  O   UNL     1      -4.180  -6.652  33.024  1.00  0.00    -0.454 OA
ATOM     24  C   UNL     1      -3.698  -7.973  32.701  1.00  0.00    +0.468 C 
ENDBRANCH  15  16
ENDBRANCH  14  15
ENDBRANCH   5  14
TORSDOF 4
ENDMDL
