MODEL 1
REMARK VINA RESULT:    -6.650      0.000      0.000
REMARK INTER + INTRA:          -7.070
REMARK INTER:                  -7.039
REMARK INTRA:                  -0.031
REMARK UNBOUND:                -0.031
REMARK SMILES COc1c2ccoc2cc2oc(=O)ccc12
REMARK SMILES IDX 1 1 2 2 3 3 16 4 4 5 15 6 10 7 8 8 5 9 14 10 11 11 9 12 7 13
REMARK SMILES IDX 6 14 12 15 13 16
REMARK H PARENT
ROOT
ATOM      1  C   UNL     1       6.117  27.482  -5.787  1.00  0.00    +0.278 C 
ATOM      2  O   UNL     1       5.663  26.171  -6.122  1.00  0.00    -0.495 OA
ENDROOT
BRANCH   2   3
ATOM      3  C   UNL     1       4.597  25.819  -5.319  1.00  0.00    +0.140 A 
ATOM      4  C   UNL     1       4.815  25.004  -4.191  1.00  0.00    +0.061 A 
ATOM      5  C   UNL     1       3.277  26.193  -5.658  1.00  0.00    +0.063 A 
ATOM      6  C   UNL     1       6.139  24.523  -3.810  1.00  0.00    +0.023 C 
ATOM      7  C   UNL     1       3.725  24.635  -3.398  1.00  0.00    +0.145 A 
ATOM      8  C   UNL     1       2.241  25.786  -4.823  1.00  0.00    +0.141 A 
ATOM      9  C   UNL     1       2.656  26.926  -6.706  1.00  0.00    +0.054 A 
ATOM     10  C   UNL     1       6.291  23.764  -2.720  1.00  0.00    +0.095 C 
ATOM     11  O   UNL     1       3.906  23.835  -2.245  1.00  0.00    -0.422 OA
ATOM     12  C   UNL     1       2.410  25.016  -3.678  1.00  0.00    +0.095 A 
ATOM     13  O   UNL     1       1.047  26.244  -5.294  1.00  0.00    -0.464 OA
ATOM     14  C   UNL     1       1.308  26.930  -6.436  1.00  0.00    +0.196 A 
ATOM     15  C   UNL     1       5.160  23.381  -1.861  1.00  0.00    +0.336 C 
ATOM     16  O   UNL     1       5.334  22.695  -0.862  1.00  0.00    -0.246 OA
ENDBRANCH   2   3
TORSDOF 1
ENDMDL
MODEL 2
REMARK VINA RESULT:    -6.517      1.344      4.864
REMARK INTER + INTRA:          -6.929
REMARK INTER:                  -6.958
REMARK INTRA:                   0.029
REMARK UNBOUND:                -0.031
REMARK SMILES COc1c2ccoc2cc2oc(=O)ccc12
REMARK SMILES IDX 1 1 2 2 3 3 16 4 4 5 15 6 10 7 8 8 5 9 14 10 11 11 9 12 7 13
REMARK SMILES IDX 6 14 12 15 13 16
REMARK H PARENT
ROOT
ATOM      1  C   UNL     1       7.511  23.503  -6.056  1.00  0.00    +0.278 C 
ATOM      2  O   UNL     1       7.139  24.667  -5.318  1.00  0.00    -0.495 OA
ENDROOT
BRANCH   2   3
ATOM      3  C   UNL     1       6.160  24.351  -4.397  1.00  0.00    +0.140 A 
ATOM      4  C   UNL     1       4.855  24.853  -4.570  1.00  0.00    +0.061 A 
ATOM      5  C   UNL     1       6.465  23.601  -3.240  1.00  0.00    +0.063 A 
ATOM      6  C   UNL     1       4.475  25.688  -5.705  1.00  0.00    +0.023 C 
ATOM      7  C   UNL     1       3.877  24.546  -3.620  1.00  0.00    +0.145 A 
ATOM      8  C   UNL     1       5.442  23.338  -2.335  1.00  0.00    +0.141 A 
ATOM      9  C   UNL     1       7.627  22.995  -2.688  1.00  0.00    +0.054 A 
ATOM     10  C   UNL     1       3.218  26.125  -5.828  1.00  0.00    +0.095 C 
ATOM     11  O   UNL     1       2.550  25.014  -3.769  1.00  0.00    -0.422 OA
ATOM     12  C   UNL     1       4.130  23.776  -2.481  1.00  0.00    +0.095 A 
ATOM     13  O   UNL     1       5.911  22.598  -1.292  1.00  0.00    -0.464 OA
ATOM     14  C   UNL     1       7.236  22.398  -1.512  1.00  0.00    +0.196 A 
ATOM     15  C   UNL     1       2.170  25.797  -4.850  1.00  0.00    +0.336 C 
ATOM     16  O   UNL     1       1.023  26.203  -4.998  1.00  0.00    -0.246 OA
ENDBRANCH   2   3
TORSDOF 1
ENDMDL
MODEL 3
REMARK VINA RESULT:    -6.358      1.309      5.151
REMARK INTER + INTRA:          -6.760
REMARK INTER:                  -6.798
REMARK INTRA:                   0.038
REMARK UNBOUND:                -0.031
REMARK SMILES COc1c2ccoc2cc2oc(=O)ccc12
REMARK SMILES IDX 1 1 2 2 3 3 16 4 4 5 15 6 10 7 8 8 5 9 14 10 11 11 9 12 7 13
REMARK SMILES IDX 6 14 12 15 13 16
REMARK H PARENT
ROOT
ATOM      1  C   UNL     1       4.556  24.177  -1.350  1.00  0.00    +0.278 C 
ATOM      2  O   UNL     1       3.917  23.629  -2.504  1.00  0.00    -0.495 OA
ENDROOT
BRANCH   2   3
ATOM      3  C   UNL     1       4.245  24.369  -3.622  1.00  0.00    +0.140 A 
ATOM      4  C   UNL     1       3.251  25.129  -4.269  1.00  0.00    +0.061 A 
ATOM      5  C   UNL     1       5.542  24.310  -4.179  1.00  0.00    +0.063 A 
ATOM      6  C   UNL     1       1.872  25.191  -3.794  1.00  0.00    +0.023 C 
ATOM      7  C   UNL     1       3.588  25.856  -5.414  1.00  0.00    +0.145 A 
ATOM      8  C   UNL     1       5.804  25.057  -5.323  1.00  0.00    +0.141 A 
ATOM      9  C   UNL     1       6.758  23.637  -3.877  1.00  0.00    +0.054 A 
ATOM     10  C   UNL     1       0.972  25.941  -4.438  1.00  0.00    +0.095 C 
ATOM     11  O   UNL     1       2.623  26.648  -6.080  1.00  0.00    -0.422 OA
ATOM     12  C   UNL     1       4.869  25.854  -5.974  1.00  0.00    +0.095 A 
ATOM     13  O   UNL     1       7.100  24.890  -5.711  1.00  0.00    -0.464 OA
ATOM     14  C   UNL     1       7.669  24.026  -4.831  1.00  0.00    +0.196 A 
ATOM     15  C   UNL     1       1.311  26.729  -5.633  1.00  0.00    +0.336 C 
ATOM     16  O   UNL     1       0.466  27.416  -6.193  1.00  0.00    -0.246 OA
ENDBRANCH   2   3
TORSDOF 1
ENDMDL
MODEL 4
REMARK VINA RESULT:    -5.751      1.612      3.602
REMARK INTER + INTRA:          -6.118
REMARK INTER:                  -6.175
REMARK INTRA:                   0.057
REMARK UNBOUND:                -0.031
REMARK SMILES COc1c2ccoc2cc2oc(=O)ccc12
REMARK SMILES IDX 1 1 2 2 3 3 16 4 4 5 15 6 10 7 8 8 5 9 14 10 11 11 9 12 7 13
REMARK SMILES IDX 6 14 12 15 13 16
REMARK H PARENT
ROOT
ATOM      1  C   UNL     1       4.522  24.280  -1.309  1.00  0.00    +0.278 C 
ATOM      2  O   UNL     1       4.188  23.473  -2.438  1.00  0.00    -0.495 OA
ENDROOT
BRANCH   2   3
ATOM      3  C   UNL     1       4.350  24.198  -3.602  1.00  0.00    +0.140 A 
ATOM      4  C   UNL     1       5.611  24.233  -4.230  1.00  0.00    +0.061 A 
ATOM      5  C   UNL     1       3.294  24.974  -4.129  1.00  0.00    +0.063 A 
ATOM      6  C   UNL     1       6.769  23.511  -3.713  1.00  0.00    +0.023 C 
ATOM      7  C   UNL     1       5.771  24.989  -5.394  1.00  0.00    +0.145 A 
ATOM      8  C   UNL     1       3.527  25.705  -5.290  1.00  0.00    +0.141 A 
ATOM      9  C   UNL     1       1.945  25.248  -3.771  1.00  0.00    +0.054 A 
ATOM     10  C   UNL     1       7.939  23.566  -4.357  1.00  0.00    +0.095 C 
ATOM     11  O   UNL     1       7.015  25.032  -6.065  1.00  0.00    -0.422 OA
ATOM     12  C   UNL     1       4.740  25.739  -5.968  1.00  0.00    +0.095 A 
ATOM     13  O   UNL     1       2.402  26.379  -5.658  1.00  0.00    -0.464 OA
ATOM     14  C   UNL     1       1.450  26.100  -4.730  1.00  0.00    +0.196 A 
ATOM     15  C   UNL     1       8.122  24.340  -5.595  1.00  0.00    +0.336 C 
ATOM     16  O   UNL     1       9.204  24.360  -6.168  1.00  0.00    -0.246 OA
ENDBRANCH   2   3
TORSDOF 1
ENDMDL
MODEL 5
REMARK VINA RESULT:    -4.883      2.037      2.721
REMARK INTER + INTRA:          -5.199
REMARK INTER:                  -5.384
REMARK INTRA:                   0.185
REMARK UNBOUND:                -0.031
REMARK SMILES COc1c2ccoc2cc2oc(=O)ccc12
REMARK SMILES IDX 1 1 2 2 3 3 16 4 4 5 15 6 10 7 8 8 5 9 14 10 11 11 9 12 7 13
REMARK SMILES IDX 6 14 12 15 13 16
REMARK H PARENT
ROOT
ATOM      1  C   UNL     1       7.893  23.463  -6.267  1.00  0.00    +0.278 C 
ATOM      2  O   UNL     1       8.142  24.604  -5.447  1.00  0.00    -0.495 OA
ENDROOT
BRANCH   2   3
ATOM      3  C   UNL     1       6.951  25.108  -4.963  1.00  0.00    +0.140 A 
ATOM      4  C   UNL     1       6.313  24.469  -3.882  1.00  0.00    +0.061 A 
ATOM      5  C   UNL     1       6.319  26.205  -5.589  1.00  0.00    +0.063 A 
ATOM      6  C   UNL     1       6.870  23.292  -3.222  1.00  0.00    +0.023 C 
ATOM      7  C   UNL     1       5.096  24.973  -3.416  1.00  0.00    +0.145 A 
ATOM      8  C   UNL     1       5.106  26.651  -5.073  1.00  0.00    +0.141 A 
ATOM      9  C   UNL     1       6.593  27.050  -6.700  1.00  0.00    +0.054 A 
ATOM     10  C   UNL     1       6.229  22.734  -2.190  1.00  0.00    +0.095 C 
ATOM     11  O   UNL     1       4.435  24.372  -2.319  1.00  0.00    -0.422 OA
ATOM     12  C   UNL     1       4.457  26.079  -3.984  1.00  0.00    +0.095 A 
ATOM     13  O   UNL     1       4.650  27.716  -5.788  1.00  0.00    -0.464 OA
ATOM     14  C   UNL     1       5.555  27.949  -6.774  1.00  0.00    +0.196 A 
ATOM     15  C   UNL     1       4.958  23.261  -1.672  1.00  0.00    +0.336 C 
ATOM     16  O   UNL     1       4.402  22.734  -0.716  1.00  0.00    -0.246 OA
ENDBRANCH   2   3
TORSDOF 1
ENDMDL
MODEL 6
REMARK VINA RESULT:    -4.782     18.164     19.816
REMARK INTER + INTRA:          -5.092
REMARK INTER:                  -5.076
REMARK INTRA:                  -0.016
REMARK UNBOUND:                -0.031
REMARK SMILES COc1c2ccoc2cc2oc(=O)ccc12
REMARK SMILES IDX 1 1 2 2 3 3 16 4 4 5 15 6 10 7 8 8 5 9 14 10 11 11 9 12 7 13
REMARK SMILES IDX 6 14 12 15 13 16
REMARK H PARENT
ROOT
ATOM      1  C   UNL     1      12.996  31.661  15.076  1.00  0.00    +0.278 C 
ATOM      2  O   UNL     1      13.737  32.466  14.159  1.00  0.00    -0.495 OA
ENDROOT
BRANCH   2   3
ATOM      3  C   UNL     1      13.206  32.348  12.890  1.00  0.00    +0.140 A 
ATOM      4  C   UNL     1      13.759  31.417  11.988  1.00  0.00    +0.061 A 
ATOM      5  C   UNL     1      12.171  33.204  12.452  1.00  0.00    +0.063 A 
ATOM      6  C   UNL     1      14.872  30.541  12.343  1.00  0.00    +0.023 C 
ATOM      7  C   UNL     1      13.230  31.322  10.699  1.00  0.00    +0.145 A 
ATOM      8  C   UNL     1      11.696  33.054  11.153  1.00  0.00    +0.141 A 
ATOM      9  C   UNL     1      11.419  34.273  13.012  1.00  0.00    +0.054 A 
ATOM     10  C   UNL     1      15.348  29.665  11.453  1.00  0.00    +0.095 C 
ATOM     11  O   UNL     1      13.744  30.385   9.771  1.00  0.00    -0.422 OA
ATOM     12  C   UNL     1      12.181  32.124  10.240  1.00  0.00    +0.095 A 
ATOM     13  O   UNL     1      10.698  33.949  10.908  1.00  0.00    -0.464 OA
ATOM     14  C   UNL     1      10.540  34.685  12.039  1.00  0.00    +0.196 A 
ATOM     15  C   UNL     1      14.791  29.536  10.097  1.00  0.00    +0.336 C 
ATOM     16  O   UNL     1      15.243  28.714   9.309  1.00  0.00    -0.246 OA
ENDBRANCH   2   3
TORSDOF 1
ENDMDL
MODEL 7
REMARK VINA RESULT:    -4.741      2.954      5.130
REMARK INTER + INTRA:          -5.049
REMARK INTER:                  -5.177
REMARK INTRA:                   0.128
REMARK UNBOUND:                -0.031
REMARK SMILES COc1c2ccoc2cc2oc(=O)ccc12
REMARK SMILES IDX 1 1 2 2 3 3 16 4 4 5 15 6 10 7 8 8 5 9 14 10 11 11 9 12 7 13
REMARK SMILES IDX 6 14 12 15 13 16
REMARK H PARENT
ROOT
ATOM      1  C   UNL     1       5.620  22.786  -5.855  1.00  0.00    +0.278 C 
ATOM      2  O   UNL     1       6.709  23.650  -5.533  1.00  0.00    -0.495 OA
ENDROOT
BRANCH   2   3
ATOM      3  C   UNL     1       6.295  24.621  -4.642  1.00  0.00    +0.140 A 
ATOM      4  C   UNL     1       6.369  25.979  -5.009  1.00  0.00    +0.061 A 
ATOM      5  C   UNL     1       5.879  24.279  -3.336  1.00  0.00    +0.063 A 
ATOM      6  C   UNL     1       6.849  26.417  -6.316  1.00  0.00    +0.023 C 
ATOM      7  C   UNL     1       5.970  26.954  -4.092  1.00  0.00    +0.145 A 
ATOM      8  C   UNL     1       5.499  25.304  -2.475  1.00  0.00    +0.141 A 
ATOM      9  C   UNL     1       5.733  23.079  -2.587  1.00  0.00    +0.054 A 
ATOM     10  C   UNL     1       6.883  27.719  -6.618  1.00  0.00    +0.095 C 
ATOM     11  O   UNL     1       6.008  28.328  -4.431  1.00  0.00    -0.422 OA
ATOM     12  C   UNL     1       5.515  26.655  -2.805  1.00  0.00    +0.095 A 
ATOM     13  O   UNL     1       5.118  24.793  -1.271  1.00  0.00    -0.464 OA
ATOM     14  C   UNL     1       5.266  23.445  -1.347  1.00  0.00    +0.196 A 
ATOM     15  C   UNL     1       6.449  28.760  -5.674  1.00  0.00    +0.336 C 
ATOM     16  O   UNL     1       6.481  29.944  -5.986  1.00  0.00    -0.246 OA
ENDBRANCH   2   3
TORSDOF 1
ENDMDL
MODEL 8
REMARK VINA RESULT:    -4.701     19.513     21.714
REMARK INTER + INTRA:          -5.007
REMARK INTER:                  -5.076
REMARK INTRA:                   0.069
REMARK UNBOUND:                -0.031
REMARK SMILES COc1c2ccoc2cc2oc(=O)ccc12
REMARK SMILES IDX 1 1 2 2 3 3 16 4 4 5 15 6 10 7 8 8 5 9 14 10 11 11 9 12 7 13
REMARK SMILES IDX 6 14 12 15 13 16
REMARK H PARENT
ROOT
ATOM      1  C   UNL     1      12.906  21.589  12.376  1.00  0.00    +0.278 C 
ATOM      2  O   UNL     1      13.572  22.355  13.380  1.00  0.00    -0.495 OA
ENDROOT
BRANCH   2   3
ATOM      3  C   UNL     1      14.935  22.150  13.304  1.00  0.00    +0.140 A 
ATOM      4  C   UNL     1      15.708  22.935  12.424  1.00  0.00    +0.061 A 
ATOM      5  C   UNL     1      15.557  21.110  14.030  1.00  0.00    +0.063 A 
ATOM      6  C   UNL     1      15.131  23.986  11.592  1.00  0.00    +0.023 C 
ATOM      7  C   UNL     1      17.083  22.704  12.337  1.00  0.00    +0.145 A 
ATOM      8  C   UNL     1      16.930  20.936  13.890  1.00  0.00    +0.141 A 
ATOM      9  C   UNL     1      15.135  20.098  14.936  1.00  0.00    +0.054 A 
ATOM     10  C   UNL     1      15.914  24.711  10.786  1.00  0.00    +0.095 C 
ATOM     11  O   UNL     1      17.897  23.485  11.482  1.00  0.00    -0.422 OA
ATOM     12  C   UNL     1      17.741  21.710  13.068  1.00  0.00    +0.095 A 
ATOM     13  O   UNL     1      17.358  19.902  14.667  1.00  0.00    -0.464 OA
ATOM     14  C   UNL     1      16.263  19.398  15.294  1.00  0.00    +0.196 A 
ATOM     15  C   UNL     1      17.366  24.497  10.695  1.00  0.00    +0.336 C 
ATOM     16  O   UNL     1      18.057  25.187   9.956  1.00  0.00    -0.246 OA
ENDBRANCH   2   3
TORSDOF 1
ENDMDL
MODEL 9
REMARK VINA RESULT:    -4.581     17.990     20.002
REMARK INTER + INTRA:          -4.879
REMARK INTER:                  -4.849
REMARK INTRA:                  -0.030
REMARK UNBOUND:                -0.031
REMARK SMILES COc1c2ccoc2cc2oc(=O)ccc12
REMARK SMILES IDX 1 1 2 2 3 3 16 4 4 5 15 6 10 7 8 8 5 9 14 10 11 11 9 12 7 13
REMARK SMILES IDX 6 14 12 15 13 16
REMARK H PARENT
ROOT
ATOM      1  C   UNL     1      16.083  31.968  13.712  1.00  0.00    +0.278 C 
ATOM      2  O   UNL     1      14.907  31.160  13.698  1.00  0.00    -0.495 OA
ENDROOT
BRANCH   2   3
ATOM      3  C   UNL     1      14.425  31.049  12.409  1.00  0.00    +0.140 A 
ATOM      4  C   UNL     1      13.365  31.877  11.990  1.00  0.00    +0.061 A 
ATOM      5  C   UNL     1      14.920  30.061  11.529  1.00  0.00    +0.063 A 
ATOM      6  C   UNL     1      12.755  32.879  12.859  1.00  0.00    +0.023 C 
ATOM      7  C   UNL     1      12.868  31.742  10.691  1.00  0.00    +0.145 A 
ATOM      8  C   UNL     1      14.374  29.981  10.251  1.00  0.00    +0.141 A 
ATOM      9  C   UNL     1      15.898  29.031  11.591  1.00  0.00    +0.054 A 
ATOM     10  C   UNL     1      11.762  33.649  12.404  1.00  0.00    +0.095 C 
ATOM     11  O   UNL     1      11.819  32.569  10.225  1.00  0.00    -0.422 OA
ATOM     12  C   UNL     1      13.357  30.802   9.778  1.00  0.00    +0.095 A 
ATOM     13  O   UNL     1      14.976  28.986   9.542  1.00  0.00    -0.464 OA
ATOM     14  C   UNL     1      15.895  28.413  10.362  1.00  0.00    +0.196 A 
ATOM     15  C   UNL     1      11.239  33.535  11.034  1.00  0.00    +0.336 C 
ATOM     16  O   UNL     1      10.336  34.265  10.645  1.00  0.00    -0.246 OA
ENDBRANCH   2   3
TORSDOF 1
ENDMDL
