MODEL 1
REMARK VINA RESULT:    -8.289      0.000      0.000
REMARK INTER + INTRA:         -10.899
REMARK INTER:                 -10.227
REMARK INTRA:                  -0.672
REMARK UNBOUND:                -0.672
REMARK SMILES CCCc1nc2c(c(=O)n(C)c(=O)n2C)n1Cc1ccco1
REMARK SMILES IDX 4 1 5 2 6 3 7 4 16 5 8 6 9 7 10 8 11 9 12 10 13 11 14 12
REMARK SMILES IDX 15 13 3 14 2 15 1 16 17 17 18 18 19 19 22 20 20 21 21 22
REMARK H PARENT
ROOT
ATOM      1  C   UNL     1     -10.968 -13.089  32.169  1.00  0.00    +0.112 A 
ATOM      2  N   UNL     1     -10.320 -13.810  31.269  1.00  0.00    -0.215 NA
ATOM      3  C   UNL     1      -9.077 -13.265  31.205  1.00  0.00    +0.168 A 
ATOM      4  C   UNL     1      -8.929 -12.225  32.069  1.00  0.00    +0.153 A 
ATOM      5  N   UNL     1     -10.152 -12.088  32.677  1.00  0.00    -0.314 N 
ATOM      6  C   UNL     1      -7.707 -11.510  32.209  1.00  0.00    +0.282 C 
ATOM      7  O   UNL     1      -7.526 -10.641  33.058  1.00  0.00    -0.267 OA
ATOM      8  N   UNL     1      -6.722 -11.930  31.307  1.00  0.00    -0.261 N 
ATOM      9  C   UNL     1      -5.440 -11.257  31.353  1.00  0.00    +0.159 C 
ATOM     10  C   UNL     1      -6.826 -13.033  30.438  1.00  0.00    +0.332 C 
ATOM     11  O   UNL     1      -5.865 -13.399  29.755  1.00  0.00    -0.247 OA
ATOM     12  N   UNL     1      -8.054 -13.693  30.394  1.00  0.00    -0.279 N 
ATOM     13  C   UNL     1      -8.252 -14.829  29.512  1.00  0.00    +0.157 C 
ENDROOT
BRANCH   1  14
ATOM     14  C   UNL     1     -12.386 -13.324  32.578  1.00  0.00    +0.075 C 
BRANCH  14  15
ATOM     15  C   UNL     1     -12.785 -14.786  32.380  1.00  0.00    +0.005 C 
ATOM     16  C   UNL     1     -12.682 -15.571  33.678  1.00  0.00    +0.004 C 
ENDBRANCH  14  15
ENDBRANCH   1  14
BRANCH   5  17
ATOM     17  C   UNL     1     -10.515 -11.094  33.676  1.00  0.00    +0.199 C 
BRANCH  17  18
ATOM     18  C   UNL     1     -11.136  -9.904  33.043  1.00  0.00    +0.123 A 
ATOM     19  C   UNL     1     -12.406  -9.364  33.081  1.00  0.00    +0.047 A 
ATOM     20  O   UNL     1     -10.329  -9.130  32.260  1.00  0.00    -0.467 OA
ATOM     21  C   UNL     1     -12.375  -8.206  32.268  1.00  0.00    +0.042 A 
ATOM     22  C   UNL     1     -11.088  -8.107  31.793  1.00  0.00    +0.195 A 
ENDBRANCH  17  18
ENDBRANCH   5  17
TORSDOF 4
ENDMDL
MODEL 2
REMARK VINA RESULT:    -7.863      2.240      4.335
REMARK INTER + INTRA:         -10.374
REMARK INTER:                  -9.730
REMARK INTRA:                  -0.644
REMARK UNBOUND:                -0.672
REMARK SMILES CCCc1nc2c(c(=O)n(C)c(=O)n2C)n1Cc1ccco1
REMARK SMILES IDX 4 1 5 2 6 3 7 4 16 5 8 6 9 7 10 8 11 9 12 10 13 11 14 12
REMARK SMILES IDX 15 13 3 14 2 15 1 16 17 17 18 18 19 19 22 20 20 21 21 22
REMARK H PARENT
ROOT
ATOM      1  C   UNL     1      -8.134 -12.828  31.222  1.00  0.00    +0.112 A 
ATOM      2  N   UNL     1      -6.906 -12.441  31.523  1.00  0.00    -0.215 NA
ATOM      3  C   UNL     1      -7.013 -11.122  31.825  1.00  0.00    +0.168 A 
ATOM      4  C   UNL     1      -8.297 -10.680  31.739  1.00  0.00    +0.153 A 
ATOM      5  N   UNL     1      -9.023 -11.769  31.326  1.00  0.00    -0.314 N 
ATOM      6  C   UNL     1      -8.670  -9.339  32.037  1.00  0.00    +0.282 C 
ATOM      7  O   UNL     1      -9.836  -8.954  32.067  1.00  0.00    -0.267 OA
ATOM      8  N   UNL     1      -7.574  -8.520  32.333  1.00  0.00    -0.261 N 
ATOM      9  C   UNL     1      -7.840  -7.129  32.639  1.00  0.00    +0.159 C 
ATOM     10  C   UNL     1      -6.243  -8.957  32.481  1.00  0.00    +0.332 C 
ATOM     11  O   UNL     1      -5.356  -8.183  32.852  1.00  0.00    -0.247 OA
ATOM     12  N   UNL     1      -5.979 -10.297  32.199  1.00  0.00    -0.279 N 
ATOM     13  C   UNL     1      -4.632 -10.824  32.307  1.00  0.00    +0.157 C 
ENDROOT
BRANCH   1  14
ATOM     14  C   UNL     1      -8.507 -14.220  30.823  1.00  0.00    +0.075 C 
BRANCH  14  15
ATOM     15  C   UNL     1      -7.405 -14.872  29.990  1.00  0.00    +0.005 C 
ATOM     16  C   UNL     1      -7.870 -15.148  28.569  1.00  0.00    +0.004 C 
ENDBRANCH  14  15
ENDBRANCH   1  14
BRANCH   5  17
ATOM     17  C   UNL     1     -10.454 -11.805  31.064  1.00  0.00    +0.199 C 
BRANCH  17  18
ATOM     18  C   UNL     1     -11.196 -12.349  32.228  1.00  0.00    +0.123 A 
ATOM     19  C   UNL     1     -11.472 -11.861  33.489  1.00  0.00    +0.047 A 
ATOM     20  O   UNL     1     -11.764 -13.581  32.076  1.00  0.00    -0.467 OA
ATOM     21  C   UNL     1     -12.238 -12.854  34.145  1.00  0.00    +0.042 A 
ATOM     22  C   UNL     1     -12.389 -13.880  33.243  1.00  0.00    +0.195 A 
ENDBRANCH  17  18
ENDBRANCH   5  17
TORSDOF 4
ENDMDL
MODEL 3
REMARK VINA RESULT:    -7.795      1.782      4.454
REMARK INTER + INTRA:         -10.290
REMARK INTER:                 -10.049
REMARK INTRA:                  -0.241
REMARK UNBOUND:                -0.672
REMARK SMILES CCCc1nc2c(c(=O)n(C)c(=O)n2C)n1Cc1ccco1
REMARK SMILES IDX 4 1 5 2 6 3 7 4 16 5 8 6 9 7 10 8 11 9 12 10 13 11 14 12
REMARK SMILES IDX 15 13 3 14 2 15 1 16 17 17 18 18 19 19 22 20 20 21 21 22
REMARK H PARENT
ROOT
ATOM      1  C   UNL     1     -10.489 -11.348  32.954  1.00  0.00    +0.112 A 
ATOM      2  N   UNL     1      -9.251 -10.932  33.162  1.00  0.00    -0.215 NA
ATOM      3  C   UNL     1      -8.478 -11.697  32.349  1.00  0.00    +0.168 A 
ATOM      4  C   UNL     1      -9.216 -12.573  31.616  1.00  0.00    +0.153 A 
ATOM      5  N   UNL     1     -10.513 -12.372  32.019  1.00  0.00    -0.314 N 
ATOM      6  C   UNL     1      -8.636 -13.463  30.669  1.00  0.00    +0.282 C 
ATOM      7  O   UNL     1      -9.298 -14.182  29.925  1.00  0.00    -0.267 OA
ATOM      8  N   UNL     1      -7.238 -13.400  30.645  1.00  0.00    -0.261 N 
ATOM      9  C   UNL     1      -6.543 -14.276  29.724  1.00  0.00    +0.159 C 
ATOM     10  C   UNL     1      -6.449 -12.472  31.351  1.00  0.00    +0.332 C 
ATOM     11  O   UNL     1      -5.227 -12.417  31.185  1.00  0.00    -0.247 OA
ATOM     12  N   UNL     1      -7.110 -11.617  32.233  1.00  0.00    -0.279 N 
ATOM     13  C   UNL     1      -6.370 -10.643  33.013  1.00  0.00    +0.157 C 
ENDROOT
BRANCH   1  14
ATOM     14  C   UNL     1     -11.694 -10.787  33.637  1.00  0.00    +0.075 C 
BRANCH  14  15
ATOM     15  C   UNL     1     -12.091  -9.437  33.042  1.00  0.00    +0.005 C 
ATOM     16  C   UNL     1     -11.127  -9.006  31.948  1.00  0.00    +0.004 C 
ENDBRANCH  14  15
ENDBRANCH   1  14
BRANCH   5  17
ATOM     17  C   UNL     1     -11.687 -13.086  31.541  1.00  0.00    +0.199 C 
BRANCH  17  18
ATOM     18  C   UNL     1     -11.909 -14.330  32.320  1.00  0.00    +0.123 A 
ATOM     19  C   UNL     1     -11.551 -15.649  32.123  1.00  0.00    +0.047 A 
ATOM     20  O   UNL     1     -12.591 -14.208  33.496  1.00  0.00    -0.467 OA
ATOM     21  C   UNL     1     -12.052 -16.371  33.233  1.00  0.00    +0.042 A 
ATOM     22  C   UNL     1     -12.676 -15.449  34.040  1.00  0.00    +0.195 A 
ENDBRANCH  17  18
ENDBRANCH   5  17
TORSDOF 4
ENDMDL
MODEL 4
REMARK VINA RESULT:    -7.765      2.742      5.963
REMARK INTER + INTRA:         -10.254
REMARK INTER:                  -9.531
REMARK INTRA:                  -0.723
REMARK UNBOUND:                -0.672
REMARK SMILES CCCc1nc2c(c(=O)n(C)c(=O)n2C)n1Cc1ccco1
REMARK SMILES IDX 4 1 5 2 6 3 7 4 16 5 8 6 9 7 10 8 11 9 12 10 13 11 14 12
REMARK SMILES IDX 15 13 3 14 2 15 1 16 17 17 18 18 19 19 22 20 20 21 21 22
REMARK H PARENT
ROOT
ATOM      1  C   UNL     1      -7.113 -11.042  31.732  1.00  0.00    +0.112 A 
ATOM      2  N   UNL     1      -8.212 -11.481  32.322  1.00  0.00    -0.215 NA
ATOM      3  C   UNL     1      -9.084 -10.442  32.267  1.00  0.00    +0.168 A 
ATOM      4  C   UNL     1      -8.555  -9.363  31.629  1.00  0.00    +0.153 A 
ATOM      5  N   UNL     1      -7.274  -9.733  31.304  1.00  0.00    -0.314 N 
ATOM      6  C   UNL     1      -9.286  -8.160  31.418  1.00  0.00    +0.282 C 
ATOM      7  O   UNL     1      -8.860  -7.219  30.754  1.00  0.00    -0.267 OA
ATOM      8  N   UNL     1     -10.553  -8.180  32.012  1.00  0.00    -0.261 N 
ATOM      9  C   UNL     1     -11.379  -6.998  31.870  1.00  0.00    +0.159 C 
ATOM     10  C   UNL     1     -11.149  -9.296  32.631  1.00  0.00    +0.332 C 
ATOM     11  O   UNL     1     -12.316  -9.256  33.031  1.00  0.00    -0.247 OA
ATOM     12  N   UNL     1     -10.366 -10.442  32.763  1.00  0.00    -0.279 N 
ATOM     13  C   UNL     1     -10.896 -11.630  33.407  1.00  0.00    +0.157 C 
ENDROOT
BRANCH   1  14
ATOM     14  C   UNL     1      -5.868 -11.851  31.555  1.00  0.00    +0.075 C 
BRANCH  14  15
ATOM     15  C   UNL     1      -6.049 -12.916  30.474  1.00  0.00    +0.005 C 
ATOM     16  C   UNL     1      -5.472 -14.253  30.908  1.00  0.00    +0.004 C 
ENDBRANCH  14  15
ENDBRANCH   1  14
BRANCH   5  17
ATOM     17  C   UNL     1      -6.284  -8.912  30.623  1.00  0.00    +0.199 C 
BRANCH  17  18
ATOM     18  C   UNL     1      -5.379  -8.249  31.596  1.00  0.00    +0.123 A 
ATOM     19  C   UNL     1      -4.108  -8.532  32.054  1.00  0.00    +0.047 A 
ATOM     20  O   UNL     1      -5.837  -7.106  32.184  1.00  0.00    -0.467 OA
ATOM     21  C   UNL     1      -3.779  -7.513  32.979  1.00  0.00    +0.042 A 
ATOM     22  C   UNL     1      -4.864  -6.669  33.022  1.00  0.00    +0.195 A 
ENDBRANCH  17  18
ENDBRANCH   5  17
TORSDOF 4
ENDMDL
MODEL 5
REMARK VINA RESULT:    -7.686      2.776      6.979
REMARK INTER + INTRA:         -10.156
REMARK INTER:                  -9.476
REMARK INTRA:                  -0.680
REMARK UNBOUND:                -0.672
REMARK SMILES CCCc1nc2c(c(=O)n(C)c(=O)n2C)n1Cc1ccco1
REMARK SMILES IDX 4 1 5 2 6 3 7 4 16 5 8 6 9 7 10 8 11 9 12 10 13 11 14 12
REMARK SMILES IDX 15 13 3 14 2 15 1 16 17 17 18 18 19 19 22 20 20 21 21 22
REMARK H PARENT
ROOT
ATOM      1  C   UNL     1      -6.658  -8.242  31.512  1.00  0.00    +0.112 A 
ATOM      2  N   UNL     1      -7.614  -7.391  31.181  1.00  0.00    -0.215 NA
ATOM      3  C   UNL     1      -8.767  -7.968  31.609  1.00  0.00    +0.168 A 
ATOM      4  C   UNL     1      -8.544  -9.160  32.225  1.00  0.00    +0.153 A 
ATOM      5  N   UNL     1      -7.188  -9.357  32.145  1.00  0.00    -0.314 N 
ATOM      6  C   UNL     1      -9.592  -9.943  32.787  1.00  0.00    +0.282 C 
ATOM      7  O   UNL     1      -9.396 -10.966  33.437  1.00  0.00    -0.267 OA
ATOM      8  N   UNL     1     -10.862  -9.402  32.555  1.00  0.00    -0.261 N 
ATOM      9  C   UNL     1     -12.004 -10.128  33.073  1.00  0.00    +0.159 C 
ATOM     10  C   UNL     1     -11.123  -8.149  31.968  1.00  0.00    +0.332 C 
ATOM     11  O   UNL     1     -12.271  -7.702  31.903  1.00  0.00    -0.247 OA
ATOM     12  N   UNL     1     -10.028  -7.438  31.476  1.00  0.00    -0.279 N 
ATOM     13  C   UNL     1     -10.210  -6.147  30.839  1.00  0.00    +0.157 C 
ENDROOT
BRANCH   1  14
ATOM     14  C   UNL     1      -5.204  -8.026  31.239  1.00  0.00    +0.075 C 
BRANCH  14  15
ATOM     15  C   UNL     1      -4.667  -6.823  32.013  1.00  0.00    +0.005 C 
ATOM     16  C   UNL     1      -3.711  -7.252  33.115  1.00  0.00    +0.004 C 
ENDBRANCH  14  15
ENDBRANCH   1  14
BRANCH   5  17
ATOM     17  C   UNL     1      -6.450 -10.507  32.644  1.00  0.00    +0.199 C 
BRANCH  17  18
ATOM     18  C   UNL     1      -6.428 -11.603  31.644  1.00  0.00    +0.123 A 
ATOM     19  C   UNL     1      -7.230 -12.706  31.428  1.00  0.00    +0.047 A 
ATOM     20  O   UNL     1      -5.441 -11.559  30.702  1.00  0.00    -0.467 OA
ATOM     21  C   UNL     1      -6.695 -13.376  30.301  1.00  0.00    +0.042 A 
ATOM     22  C   UNL     1      -5.608 -12.638  29.896  1.00  0.00    +0.195 A 
ENDBRANCH  17  18
ENDBRANCH   5  17
TORSDOF 4
ENDMDL
MODEL 6
REMARK VINA RESULT:    -7.676      2.143      5.103
REMARK INTER + INTRA:         -10.143
REMARK INTER:                  -9.631
REMARK INTRA:                  -0.512
REMARK UNBOUND:                -0.672
REMARK SMILES CCCc1nc2c(c(=O)n(C)c(=O)n2C)n1Cc1ccco1
REMARK SMILES IDX 4 1 5 2 6 3 7 4 16 5 8 6 9 7 10 8 11 9 12 10 13 11 14 12
REMARK SMILES IDX 15 13 3 14 2 15 1 16 17 17 18 18 19 19 22 20 20 21 21 22
REMARK H PARENT
ROOT
ATOM      1  C   UNL     1     -11.210 -11.267  33.009  1.00  0.00    +0.112 A 
ATOM      2  N   UNL     1     -11.989 -10.209  32.865  1.00  0.00    -0.215 NA
ATOM      3  C   UNL     1     -11.166  -9.217  32.438  1.00  0.00    +0.168 A 
ATOM      4  C   UNL     1      -9.884  -9.645  32.289  1.00  0.00    +0.153 A 
ATOM      5  N   UNL     1      -9.898 -10.960  32.680  1.00  0.00    -0.314 N 
ATOM      6  C   UNL     1      -8.839  -8.797  31.823  1.00  0.00    +0.282 C 
ATOM      7  O   UNL     1      -7.703  -9.195  31.583  1.00  0.00    -0.267 OA
ATOM      8  N   UNL     1      -9.256  -7.474  31.629  1.00  0.00    -0.261 N 
ATOM      9  C   UNL     1      -8.267  -6.521  31.167  1.00  0.00    +0.159 C 
ATOM     10  C   UNL     1     -10.583  -7.012  31.724  1.00  0.00    +0.332 C 
ATOM     11  O   UNL     1     -10.876  -5.851  31.426  1.00  0.00    -0.247 OA
ATOM     12  N   UNL     1     -11.544  -7.926  32.157  1.00  0.00    -0.279 N 
ATOM     13  C   UNL     1     -12.932  -7.526  32.301  1.00  0.00    +0.157 C 
ENDROOT
BRANCH   1  14
ATOM     14  C   UNL     1     -11.684 -12.610  33.465  1.00  0.00    +0.075 C 
BRANCH  14  15
ATOM     15  C   UNL     1     -12.802 -13.137  32.567  1.00  0.00    +0.005 C 
ATOM     16  C   UNL     1     -13.040 -14.622  32.788  1.00  0.00    +0.004 C 
ENDBRANCH  14  15
ENDBRANCH   1  14
BRANCH   5  17
ATOM     17  C   UNL     1      -8.756 -11.862  32.723  1.00  0.00    +0.199 C 
BRANCH  17  18
ATOM     18  C   UNL     1      -8.707 -12.720  31.513  1.00  0.00    +0.123 A 
ATOM     19  C   UNL     1      -9.668 -13.172  30.631  1.00  0.00    +0.047 A 
ATOM     20  O   UNL     1      -7.479 -13.177  31.131  1.00  0.00    -0.467 OA
ATOM     21  C   UNL     1      -8.991 -13.956  29.667  1.00  0.00    +0.042 A 
ATOM     22  C   UNL     1      -7.661 -13.927  30.015  1.00  0.00    +0.195 A 
ENDBRANCH  17  18
ENDBRANCH   5  17
TORSDOF 4
ENDMDL
MODEL 7
REMARK VINA RESULT:    -7.330      2.648      5.826
REMARK INTER + INTRA:          -9.716
REMARK INTER:                  -9.237
REMARK INTRA:                  -0.479
REMARK UNBOUND:                -0.672
REMARK SMILES CCCc1nc2c(c(=O)n(C)c(=O)n2C)n1Cc1ccco1
REMARK SMILES IDX 4 1 5 2 6 3 7 4 16 5 8 6 9 7 10 8 11 9 12 10 13 11 14 12
REMARK SMILES IDX 15 13 3 14 2 15 1 16 17 17 18 18 19 19 22 20 20 21 21 22
REMARK H PARENT
ROOT
ATOM      1  C   UNL     1      -8.196 -11.422  31.748  1.00  0.00    +0.112 A 
ATOM      2  N   UNL     1      -9.151 -10.526  31.562  1.00  0.00    -0.215 NA
ATOM      3  C   UNL     1      -8.507  -9.334  31.473  1.00  0.00    +0.168 A 
ATOM      4  C   UNL     1      -7.157  -9.473  31.578  1.00  0.00    +0.153 A 
ATOM      5  N   UNL     1      -6.950 -10.814  31.781  1.00  0.00    -0.314 N 
ATOM      6  C   UNL     1      -6.262  -8.370  31.485  1.00  0.00    +0.282 C 
ATOM      7  O   UNL     1      -5.040  -8.492  31.471  1.00  0.00    -0.267 OA
ATOM      8  N   UNL     1      -6.921  -7.140  31.370  1.00  0.00    -0.261 N 
ATOM      9  C   UNL     1      -6.103  -5.947  31.282  1.00  0.00    +0.159 C 
ATOM     10  C   UNL     1      -8.309  -6.968  31.207  1.00  0.00    +0.332 C 
ATOM     11  O   UNL     1      -8.793  -5.851  31.001  1.00  0.00    -0.247 OA
ATOM     12  N   UNL     1      -9.104  -8.111  31.279  1.00  0.00    -0.279 N 
ATOM     13  C   UNL     1     -10.546  -8.020  31.141  1.00  0.00    +0.157 C 
ENDROOT
BRANCH   1  14
ATOM     14  C   UNL     1      -8.434 -12.890  31.901  1.00  0.00    +0.075 C 
BRANCH  14  15
ATOM     15  C   UNL     1      -9.340 -13.424  30.793  1.00  0.00    +0.005 C 
ATOM     16  C   UNL     1      -8.744 -14.657  30.132  1.00  0.00    +0.004 C 
ENDBRANCH  14  15
ENDBRANCH   1  14
BRANCH   5  17
ATOM     17  C   UNL     1      -5.666 -11.470  31.975  1.00  0.00    +0.199 C 
BRANCH  17  18
ATOM     18  C   UNL     1      -5.458 -12.545  30.974  1.00  0.00    +0.123 A 
ATOM     19  C   UNL     1      -5.256 -13.907  31.072  1.00  0.00    +0.047 A 
ATOM     20  O   UNL     1      -5.475 -12.175  29.660  1.00  0.00    -0.467 OA
ATOM     21  C   UNL     1      -5.132 -14.391  29.747  1.00  0.00    +0.042 A 
ATOM     22  C   UNL     1      -5.273 -13.298  28.925  1.00  0.00    +0.195 A 
ENDBRANCH  17  18
ENDBRANCH   5  17
TORSDOF 4
ENDMDL
MODEL 8
REMARK VINA RESULT:    -7.209      2.260      4.981
REMARK INTER + INTRA:          -9.567
REMARK INTER:                  -8.960
REMARK INTRA:                  -0.607
REMARK UNBOUND:                -0.672
REMARK SMILES CCCc1nc2c(c(=O)n(C)c(=O)n2C)n1Cc1ccco1
REMARK SMILES IDX 4 1 5 2 6 3 7 4 16 5 8 6 9 7 10 8 11 9 12 10 13 11 14 12
REMARK SMILES IDX 15 13 3 14 2 15 1 16 17 17 18 18 19 19 22 20 20 21 21 22
REMARK H PARENT
ROOT
ATOM      1  C   UNL     1     -10.027 -11.459  31.307  1.00  0.00    +0.112 A 
ATOM      2  N   UNL     1     -10.321 -10.185  31.105  1.00  0.00    -0.215 NA
ATOM      3  C   UNL     1      -9.142  -9.524  31.237  1.00  0.00    +0.168 A 
ATOM      4  C   UNL     1      -8.107 -10.369  31.496  1.00  0.00    +0.153 A 
ATOM      5  N   UNL     1      -8.674 -11.616  31.568  1.00  0.00    -0.314 N 
ATOM      6  C   UNL     1      -6.766  -9.917  31.646  1.00  0.00    +0.282 C 
ATOM      7  O   UNL     1      -5.809 -10.676  31.774  1.00  0.00    -0.267 OA
ATOM      8  N   UNL     1      -6.649  -8.524  31.590  1.00  0.00    -0.261 N 
ATOM      9  C   UNL     1      -5.325  -7.955  31.746  1.00  0.00    +0.159 C 
ATOM     10  C   UNL     1      -7.688  -7.628  31.273  1.00  0.00    +0.332 C 
ATOM     11  O   UNL     1      -7.470  -6.420  31.138  1.00  0.00    -0.247 OA
ATOM     12  N   UNL     1      -8.964  -8.167  31.111  1.00  0.00    -0.279 N 
ATOM     13  C   UNL     1     -10.095  -7.311  30.802  1.00  0.00    +0.157 C 
ENDROOT
BRANCH   1  14
ATOM     14  C   UNL     1     -11.023 -12.573  31.258  1.00  0.00    +0.075 C 
BRANCH  14  15
ATOM     15  C   UNL     1     -11.694 -12.776  32.616  1.00  0.00    +0.005 C 
ATOM     16  C   UNL     1     -13.146 -13.199  32.462  1.00  0.00    +0.004 C 
ENDBRANCH  14  15
ENDBRANCH   1  14
BRANCH   5  17
ATOM     17  C   UNL     1      -7.982 -12.865  31.848  1.00  0.00    +0.199 C 
BRANCH  17  18
ATOM     18  C   UNL     1      -7.714 -13.620  30.598  1.00  0.00    +0.123 A 
ATOM     19  C   UNL     1      -8.447 -14.533  29.866  1.00  0.00    +0.047 A 
ATOM     20  O   UNL     1      -6.514 -13.395  29.987  1.00  0.00    -0.467 OA
ATOM     21  C   UNL     1      -7.645 -14.892  28.756  1.00  0.00    +0.042 A 
ATOM     22  C   UNL     1      -6.480 -14.173  28.875  1.00  0.00    +0.195 A 
ENDBRANCH  17  18
ENDBRANCH   5  17
TORSDOF 4
ENDMDL
MODEL 9
REMARK VINA RESULT:    -6.942      2.380      5.091
REMARK INTER + INTRA:          -9.237
REMARK INTER:                  -8.598
REMARK INTRA:                  -0.640
REMARK UNBOUND:                -0.672
REMARK SMILES CCCc1nc2c(c(=O)n(C)c(=O)n2C)n1Cc1ccco1
REMARK SMILES IDX 4 1 5 2 6 3 7 4 16 5 8 6 9 7 10 8 11 9 12 10 13 11 14 12
REMARK SMILES IDX 15 13 3 14 2 15 1 16 17 17 18 18 19 19 22 20 20 21 21 22
REMARK H PARENT
ROOT
ATOM      1  C   UNL     1      -5.813  -9.710  31.229  1.00  0.00    +0.112 A 
ATOM      2  N   UNL     1      -5.388 -10.739  30.515  1.00  0.00    -0.215 NA
ATOM      3  C   UNL     1      -6.355 -11.684  30.643  1.00  0.00    +0.168 A 
ATOM      4  C   UNL     1      -7.393 -11.253  31.410  1.00  0.00    +0.153 A 
ATOM      5  N   UNL     1      -7.040  -9.990  31.813  1.00  0.00    -0.314 N 
ATOM      6  C   UNL     1      -8.543 -12.052  31.666  1.00  0.00    +0.282 C 
ATOM      7  O   UNL     1      -9.531 -11.640  32.266  1.00  0.00    -0.267 OA
ATOM      8  N   UNL     1      -8.444 -13.341  31.128  1.00  0.00    -0.261 N 
ATOM      9  C   UNL     1      -9.556 -14.244  31.342  1.00  0.00    +0.159 C 
ATOM     10  C   UNL     1      -7.410 -13.799  30.288  1.00  0.00    +0.332 C 
ATOM     11  O   UNL     1      -7.460 -14.917  29.768  1.00  0.00    -0.247 OA
ATOM     12  N   UNL     1      -6.340 -12.932  30.067  1.00  0.00    -0.279 N 
ATOM     13  C   UNL     1      -5.224 -13.333  29.230  1.00  0.00    +0.157 C 
ENDROOT
BRANCH   1  14
ATOM     14  C   UNL     1      -5.068  -8.424  31.382  1.00  0.00    +0.075 C 
BRANCH  14  15
ATOM     15  C   UNL     1      -4.038  -8.510  32.508  1.00  0.00    +0.005 C 
ATOM     16  C   UNL     1      -3.619  -7.130  32.987  1.00  0.00    +0.004 C 
ENDBRANCH  14  15
ENDBRANCH   1  14
BRANCH   5  17
ATOM     17  C   UNL     1      -7.814  -9.109  32.674  1.00  0.00    +0.199 C 
BRANCH  17  18
ATOM     18  C   UNL     1      -8.663  -8.192  31.875  1.00  0.00    +0.123 A 
ATOM     19  C   UNL     1      -9.665  -8.393  30.947  1.00  0.00    +0.047 A 
ATOM     20  O   UNL     1      -8.473  -6.853  32.064  1.00  0.00    -0.467 OA
ATOM     21  C   UNL     1     -10.100  -7.109  30.541  1.00  0.00    +0.042 A 
ATOM     22  C   UNL     1      -9.344  -6.206  31.250  1.00  0.00    +0.195 A 
ENDBRANCH  17  18
ENDBRANCH   5  17
TORSDOF 4
ENDMDL
