MODEL 1
REMARK VINA RESULT:    -6.541      0.000      0.000
REMARK INTER + INTRA:         -11.286
REMARK INTER:                 -10.747
REMARK INTRA:                  -0.540
REMARK UNBOUND:                -0.540
REMARK SMILES CC(=O)OC1C(=O)N(CCN(C)C)c2ccccc2SC1c1ccccc1
REMARK SMILES IDX 19 1 18 2 17 3 16 4 15 5 14 6 20 7 21 8 5 9 4 11 2 12 3 13
REMARK SMILES IDX 1 14 22 15 23 16 27 17 24 18 26 19 25 20 8 21 9 22 10 23
REMARK SMILES IDX 11 24 12 25 13 26 6 27 7 28
REMARK H PARENT
REMARK Flexibility Score:   44.900
ROOT
ATOM      1  C   UNL     1     -20.151 -14.527 -12.887  1.00  0.00    +0.032 A 
ATOM      2  C   UNL     1     -19.207 -13.943 -13.750  1.00  0.00    +0.017 A 
ATOM      3  C   UNL     1     -18.023 -14.603 -14.065  1.00  0.00    +0.001 A 
ATOM      4  C   UNL     1     -17.759 -15.844 -13.501  1.00  0.00    +0.002 A 
ATOM      5  C   UNL     1     -18.684 -16.430 -12.632  1.00  0.00    +0.027 A 
ATOM      6  C   UNL     1     -19.905 -15.802 -12.324  1.00  0.00    +0.057 A 
ENDROOT
BRANCH   1   7
ATOM      7  S   UNL     1     -21.531 -13.476 -12.439  1.00  0.00    -0.111 SA
BRANCH   7   8
ATOM      8  C   UNL     1     -22.945 -14.488 -13.044  1.00  0.00    +0.132 C 
BRANCH   8   9
ATOM      9  C   UNL     1     -22.703 -16.002 -13.030  1.00  0.00    +0.283 CG0
ATOM     10  G   UNL     1     -22.209 -16.420 -11.639  1.00  0.00    +0.000 G0
BRANCH   9  11
ATOM     11  O   UNL     1     -23.968 -16.665 -13.267  1.00  0.00    -0.451 OA
BRANCH  11  12
ATOM     12  C   UNL     1     -24.042 -17.359 -14.434  1.00  0.00    +0.303 C 
ATOM     13  O   UNL     1     -23.108 -17.919 -14.990  1.00  0.00    -0.253 OA
ATOM     14  C   UNL     1     -25.439 -17.312 -14.968  1.00  0.00    +0.139 C 
ENDBRANCH  11  12
ENDBRANCH   9  11
ENDBRANCH   8   9
BRANCH   8  15
ATOM     15  C   UNL     1     -23.416 -13.964 -14.399  1.00  0.00    -0.030 A 
ATOM     16  C   UNL     1     -24.608 -13.232 -14.548  1.00  0.00    +0.005 A 
ATOM     17  C   UNL     1     -22.651 -14.231 -15.547  1.00  0.00    +0.005 A 
ATOM     18  C   UNL     1     -25.010 -12.772 -15.803  1.00  0.00    +0.000 A 
ATOM     19  C   UNL     1     -23.056 -13.769 -16.801  1.00  0.00    +0.000 A 
ATOM     20  C   UNL     1     -24.235 -13.039 -16.928  1.00  0.00    +0.000 A 
ENDBRANCH   8  15
ENDBRANCH   7   8
ENDBRANCH   1   7
BRANCH   6  21
ATOM     21  N   UNL     1     -20.833 -16.448 -11.437  1.00  0.00    -0.307 N 
BRANCH  21  22
ATOM     22  C   UNL     1     -20.332 -17.123 -10.231  1.00  0.00    +0.141 C 
BRANCH  22  23
ATOM     23  C   UNL     1     -19.726 -16.162  -9.173  1.00  0.00    +0.106 C 
BRANCH  23  24
ATOM     24  N   UNL     1     -20.631 -15.779  -8.076  1.00  0.00    -0.308 NA
ATOM     25  C   UNL     1     -21.433 -14.611  -8.440  1.00  0.00    +0.105 C 
ATOM     26  C   UNL     1     -21.506 -16.883  -7.680  1.00  0.00    +0.105 C 
ENDBRANCH  23  24
ENDBRANCH  22  23
ENDBRANCH  21  22
BRANCH  21  27
ATOM     27  C   UNL     1     -22.221 -16.432 -11.627  1.00  0.00    +0.269 CG0
ATOM     28  O   UNL     1     -23.024 -16.776 -10.756  1.00  0.00    -0.270 OA
ATOM     29  G   UNL     1     -22.709 -16.007 -13.019  1.00  0.00    +0.000 G0
ENDBRANCH  21  27
ENDBRANCH   6  21
TORSDOF 6
ENDMDL
MODEL 2
REMARK VINA RESULT:    -6.533      1.927      3.591
REMARK INTER + INTRA:         -11.273
REMARK INTER:                 -11.419
REMARK INTRA:                   0.146
REMARK UNBOUND:                -0.540
REMARK SMILES CC(=O)OC1C(=O)N(CCN(C)C)c2ccccc2SC1c1ccccc1
REMARK SMILES IDX 19 1 18 2 17 3 16 4 15 5 14 6 20 7 21 8 5 9 4 11 2 12 3 13
REMARK SMILES IDX 1 14 22 15 23 16 27 17 24 18 26 19 25 20 8 21 9 22 10 23
REMARK SMILES IDX 11 24 12 25 13 26 6 27 7 28
REMARK H PARENT
REMARK Flexibility Score:   44.900
ROOT
ATOM      1  C   UNL     1     -22.263 -15.200 -10.621  1.00  0.00    +0.032 A 
ATOM      2  C   UNL     1     -23.130 -15.054  -9.524  1.00  0.00    +0.017 A 
ATOM      3  C   UNL     1     -23.162 -16.005  -8.507  1.00  0.00    +0.001 A 
ATOM      4  C   UNL     1     -22.346 -17.125  -8.590  1.00  0.00    +0.002 A 
ATOM      5  C   UNL     1     -21.488 -17.287  -9.682  1.00  0.00    +0.027 A 
ATOM      6  C   UNL     1     -21.408 -16.326 -10.705  1.00  0.00    +0.057 A 
ENDROOT
BRANCH   1   7
ATOM      7  S   UNL     1     -22.472 -13.992 -11.927  1.00  0.00    -0.111 SA
BRANCH   7   8
ATOM      8  C   UNL     1     -23.039 -15.071 -13.306  1.00  0.00    +0.132 C 
BRANCH   8   9
ATOM      9  C   UNL     1     -22.016 -16.114 -13.768  1.00  0.00    +0.283 CG0
ATOM     10  G   UNL     1     -20.685 -15.869 -13.045  1.00  0.00    +0.000 G0
BRANCH   9  11
ATOM     11  O   UNL     1     -22.495 -17.424 -13.378  1.00  0.00    -0.451 OA
BRANCH  11  12
ATOM     12  C   UNL     1     -23.351 -18.007 -14.259  1.00  0.00    +0.303 C 
ATOM     13  O   UNL     1     -23.111 -18.245 -15.433  1.00  0.00    -0.253 OA
ATOM     14  C   UNL     1     -24.659 -18.290 -13.588  1.00  0.00    +0.139 C 
ENDBRANCH  11  12
ENDBRANCH   9  11
ENDBRANCH   8   9
BRANCH   8  15
ATOM     15  C   UNL     1     -23.584 -14.212 -14.446  1.00  0.00    -0.030 A 
ATOM     16  C   UNL     1     -24.054 -12.903 -14.241  1.00  0.00    +0.005 A 
ATOM     17  C   UNL     1     -23.640 -14.744 -15.746  1.00  0.00    +0.005 A 
ATOM     18  C   UNL     1     -24.550 -12.149 -15.307  1.00  0.00    +0.000 A 
ATOM     19  C   UNL     1     -24.136 -13.987 -16.809  1.00  0.00    +0.000 A 
ATOM     20  C   UNL     1     -24.590 -12.689 -16.589  1.00  0.00    +0.000 A 
ENDBRANCH   8  15
ENDBRANCH   7   8
ENDBRANCH   1   7
BRANCH   6  21
ATOM     21  N   UNL     1     -20.501 -16.526 -11.801  1.00  0.00    -0.307 N 
BRANCH  21  22
ATOM     22  C   UNL     1     -19.379 -17.464 -11.650  1.00  0.00    +0.141 C 
BRANCH  22  23
ATOM     23  C   UNL     1     -19.097 -18.322 -12.913  1.00  0.00    +0.106 C 
BRANCH  23  24
ATOM     24  N   UNL     1     -18.968 -19.770 -12.677  1.00  0.00    -0.308 NA
ATOM     25  C   UNL     1     -19.132 -20.089 -11.259  1.00  0.00    +0.105 C 
ATOM     26  C   UNL     1     -19.921 -20.540 -13.477  1.00  0.00    +0.105 C 
ENDBRANCH  23  24
ENDBRANCH  22  23
ENDBRANCH  21  22
BRANCH  21  27
ATOM     27  C   UNL     1     -20.650 -15.908 -13.050  1.00  0.00    +0.269 CG0
ATOM     28  O   UNL     1     -19.777 -15.200 -13.559  1.00  0.00    -0.270 OA
ATOM     29  G   UNL     1     -21.999 -16.113 -13.750  1.00  0.00    +0.000 G0
ENDBRANCH  21  27
ENDBRANCH   6  21
TORSDOF 6
ENDMDL
MODEL 3
REMARK VINA RESULT:    -6.511      2.755      3.864
REMARK INTER + INTRA:         -11.238
REMARK INTER:                 -11.505
REMARK INTRA:                   0.267
REMARK UNBOUND:                -0.540
REMARK SMILES CC(=O)OC1C(=O)N(CCN(C)C)c2ccccc2SC1c1ccccc1
REMARK SMILES IDX 19 1 18 2 17 3 16 4 15 5 14 6 20 7 21 8 5 9 4 11 2 12 3 13
REMARK SMILES IDX 1 14 22 15 23 16 27 17 24 18 26 19 25 20 8 21 9 22 10 23
REMARK SMILES IDX 11 24 12 25 13 26 6 27 7 28
REMARK H PARENT
REMARK Flexibility Score:   44.900
ROOT
ATOM      1  C   UNL     1     -21.441 -18.712 -13.688  1.00  0.00    +0.032 A 
ATOM      2  C   UNL     1     -21.658 -19.895 -14.416  1.00  0.00    +0.017 A 
ATOM      3  C   UNL     1     -20.682 -20.887 -14.474  1.00  0.00    +0.001 A 
ATOM      4  C   UNL     1     -19.470 -20.694 -13.825  1.00  0.00    +0.002 A 
ATOM      5  C   UNL     1     -19.238 -19.516 -13.108  1.00  0.00    +0.027 A 
ATOM      6  C   UNL     1     -20.219 -18.514 -13.003  1.00  0.00    +0.057 A 
ENDROOT
BRANCH   1   7
ATOM      7  S   UNL     1     -22.714 -17.463 -13.863  1.00  0.00    -0.111 SA
BRANCH   7   8
ATOM      8  C   UNL     1     -21.731 -16.063 -14.544  1.00  0.00    +0.132 C 
BRANCH   8   9
ATOM      9  C   UNL     1     -20.818 -15.366 -13.529  1.00  0.00    +0.283 CG0
ATOM     10  G   UNL     1     -20.789 -16.185 -12.232  1.00  0.00    +0.000 G0
BRANCH   9  11
ATOM     11  O   UNL     1     -19.475 -15.343 -14.068  1.00  0.00    -0.451 OA
BRANCH  11  12
ATOM     12  C   UNL     1     -18.758 -14.226 -13.775  1.00  0.00    +0.303 C 
ATOM     13  O   UNL     1     -17.538 -14.153 -13.736  1.00  0.00    -0.253 OA
ATOM     14  C   UNL     1     -19.684 -13.090 -13.470  1.00  0.00    +0.139 C 
ENDBRANCH  11  12
ENDBRANCH   9  11
ENDBRANCH   8   9
BRANCH   8  15
ATOM     15  C   UNL     1     -22.651 -15.100 -15.292  1.00  0.00    -0.030 A 
ATOM     16  C   UNL     1     -22.161 -13.978 -15.983  1.00  0.00    +0.005 A 
ATOM     17  C   UNL     1     -24.039 -15.321 -15.281  1.00  0.00    +0.005 A 
ATOM     18  C   UNL     1     -23.032 -13.116 -16.653  1.00  0.00    +0.000 A 
ATOM     19  C   UNL     1     -24.907 -14.457 -15.952  1.00  0.00    +0.000 A 
ATOM     20  C   UNL     1     -24.403 -13.356 -16.639  1.00  0.00    +0.000 A 
ENDBRANCH   8  15
ENDBRANCH   7   8
ENDBRANCH   1   7
BRANCH   6  21
ATOM     21  N   UNL     1     -19.943 -17.325 -12.243  1.00  0.00    -0.307 N 
BRANCH  21  22
ATOM     22  C   UNL     1     -18.692 -17.232 -11.475  1.00  0.00    +0.141 C 
BRANCH  22  23
ATOM     23  C   UNL     1     -18.880 -17.381  -9.941  1.00  0.00    +0.106 C 
BRANCH  23  24
ATOM     24  N   UNL     1     -19.778 -18.469  -9.517  1.00  0.00    -0.308 NA
ATOM     25  C   UNL     1     -19.016 -19.615  -9.019  1.00  0.00    +0.105 C 
ATOM     26  C   UNL     1     -20.733 -18.023  -8.503  1.00  0.00    +0.105 C 
ENDBRANCH  23  24
ENDBRANCH  22  23
ENDBRANCH  21  22
BRANCH  21  27
ATOM     27  C   UNL     1     -20.786 -16.207 -12.226  1.00  0.00    +0.269 CG0
ATOM     28  O   UNL     1     -21.499 -15.915 -11.262  1.00  0.00    -0.270 OA
ATOM     29  G   UNL     1     -20.822 -15.367 -13.510  1.00  0.00    +0.000 G0
ENDBRANCH  21  27
ENDBRANCH   6  21
TORSDOF 6
ENDMDL
MODEL 4
REMARK VINA RESULT:    -6.307      2.834      6.363
REMARK INTER + INTRA:         -10.903
REMARK INTER:                 -11.294
REMARK INTRA:                   0.391
REMARK UNBOUND:                -0.540
REMARK SMILES CC(=O)OC1C(=O)N(CCN(C)C)c2ccccc2SC1c1ccccc1
REMARK SMILES IDX 19 1 18 2 17 3 16 4 15 5 14 6 20 7 21 8 5 9 4 11 2 12 3 13
REMARK SMILES IDX 1 14 22 15 23 16 27 17 24 18 26 19 25 20 8 21 9 22 10 23
REMARK SMILES IDX 11 24 12 25 13 26 6 27 7 28
REMARK H PARENT
REMARK Flexibility Score:   44.900
ROOT
ATOM      1  C   UNL     1     -20.568 -16.476 -10.513  1.00  0.00    +0.032 A 
ATOM      2  C   UNL     1     -20.662 -16.689  -9.127  1.00  0.00    +0.017 A 
ATOM      3  C   UNL     1     -21.788 -16.282  -8.416  1.00  0.00    +0.001 A 
ATOM      4  C   UNL     1     -22.820 -15.635  -9.081  1.00  0.00    +0.002 A 
ATOM      5  C   UNL     1     -22.733 -15.406 -10.458  1.00  0.00    +0.027 A 
ATOM      6  C   UNL     1     -21.624 -15.839 -11.206  1.00  0.00    +0.057 A 
ENDROOT
BRANCH   1   7
ATOM      7  S   UNL     1     -18.985 -16.890 -11.244  1.00  0.00    -0.111 SA
BRANCH   7   8
ATOM      8  C   UNL     1     -19.497 -18.158 -12.477  1.00  0.00    +0.132 C 
BRANCH   8   9
ATOM      9  C   UNL     1     -20.884 -17.934 -13.090  1.00  0.00    +0.283 CG0
ATOM     10  G   UNL     1     -21.005 -16.474 -13.544  1.00  0.00    +0.000 G0
BRANCH   9  11
ATOM     11  O   UNL     1     -21.003 -18.774 -14.263  1.00  0.00    -0.451 OA
BRANCH  11  12
ATOM     12  C   UNL     1     -22.241 -19.293 -14.475  1.00  0.00    +0.303 C 
ATOM     13  O   UNL     1     -23.297 -18.688 -14.357  1.00  0.00    -0.253 OA
ATOM     14  C   UNL     1     -22.132 -20.739 -14.845  1.00  0.00    +0.139 C 
ENDBRANCH  11  12
ENDBRANCH   9  11
ENDBRANCH   8   9
BRANCH   8  15
ATOM     15  C   UNL     1     -19.314 -19.556 -11.889  1.00  0.00    -0.030 A 
ATOM     16  C   UNL     1     -19.366 -20.716 -12.681  1.00  0.00    +0.005 A 
ATOM     17  C   UNL     1     -19.104 -19.702 -10.507  1.00  0.00    +0.005 A 
ATOM     18  C   UNL     1     -19.198 -21.979 -12.109  1.00  0.00    +0.000 A 
ATOM     19  C   UNL     1     -18.937 -20.966  -9.938  1.00  0.00    +0.000 A 
ATOM     20  C   UNL     1     -18.982 -22.104 -10.739  1.00  0.00    +0.000 A 
ENDBRANCH   8  15
ENDBRANCH   7   8
ENDBRANCH   1   7
BRANCH   6  21
ATOM     21  N   UNL     1     -21.583 -15.595 -12.622  1.00  0.00    -0.307 N 
BRANCH  21  22
ATOM     22  C   UNL     1     -22.153 -14.351 -13.160  1.00  0.00    +0.141 C 
BRANCH  22  23
ATOM     23  C   UNL     1     -23.411 -14.562 -14.044  1.00  0.00    +0.106 C 
BRANCH  23  24
ATOM     24  N   UNL     1     -23.267 -14.163 -15.454  1.00  0.00    -0.308 NA
ATOM     25  C   UNL     1     -24.542 -13.700 -16.002  1.00  0.00    +0.105 C 
ATOM     26  C   UNL     1     -22.243 -13.133 -15.627  1.00  0.00    +0.105 C 
ENDBRANCH  23  24
ENDBRANCH  22  23
ENDBRANCH  21  22
BRANCH  21  27
ATOM     27  C   UNL     1     -20.977 -16.465 -13.538  1.00  0.00    +0.269 CG0
ATOM     28  O   UNL     1     -20.580 -16.103 -14.649  1.00  0.00    -0.270 OA
ATOM     29  G   UNL     1     -20.872 -17.934 -13.108  1.00  0.00    +0.000 G0
ENDBRANCH  21  27
ENDBRANCH   6  21
TORSDOF 6
ENDMDL
MODEL 5
REMARK VINA RESULT:    -6.300      2.417      3.812
REMARK INTER + INTRA:         -10.891
REMARK INTER:                 -10.389
REMARK INTRA:                  -0.502
REMARK UNBOUND:                -0.540
REMARK SMILES CC(=O)OC1C(=O)N(CCN(C)C)c2ccccc2SC1c1ccccc1
REMARK SMILES IDX 19 1 18 2 17 3 16 4 15 5 14 6 20 7 21 8 5 9 4 11 2 12 3 13
REMARK SMILES IDX 1 14 22 15 23 16 27 17 24 18 26 19 25 20 8 21 9 22 10 23
REMARK SMILES IDX 11 24 12 25 13 26 6 27 7 28
REMARK H PARENT
REMARK Flexibility Score:   44.900
ROOT
ATOM      1  C   UNL     1     -19.902 -17.077 -13.037  1.00  0.00    +0.032 A 
ATOM      2  C   UNL     1     -19.387 -18.370 -13.236  1.00  0.00    +0.017 A 
ATOM      3  C   UNL     1     -19.043 -19.177 -12.155  1.00  0.00    +0.001 A 
ATOM      4  C   UNL     1     -19.186 -18.690 -10.863  1.00  0.00    +0.002 A 
ATOM      5  C   UNL     1     -19.686 -17.401 -10.652  1.00  0.00    +0.027 A 
ATOM      6  C   UNL     1     -20.075 -16.577 -11.723  1.00  0.00    +0.057 A 
ENDROOT
BRANCH   1   7
ATOM      7  S   UNL     1     -20.122 -16.103 -14.524  1.00  0.00    -0.111 SA
BRANCH   7   8
ATOM      8  C   UNL     1     -21.873 -15.570 -14.331  1.00  0.00    +0.132 C 
BRANCH   8   9
ATOM      9  C   UNL     1     -22.096 -14.461 -13.296  1.00  0.00    +0.283 CG0
ATOM     10  G   UNL     1     -20.824 -14.292 -12.456  1.00  0.00    +0.000 G0
BRANCH   9  11
ATOM     11  O   UNL     1     -22.326 -13.220 -14.005  1.00  0.00    -0.451 OA
BRANCH  11  12
ATOM     12  C   UNL     1     -23.605 -12.761 -13.959  1.00  0.00    +0.303 C 
ATOM     13  O   UNL     1     -24.423 -12.843 -14.864  1.00  0.00    -0.253 OA
ATOM     14  C   UNL     1     -23.866 -12.105 -12.640  1.00  0.00    +0.139 C 
ENDBRANCH  11  12
ENDBRANCH   9  11
ENDBRANCH   8   9
BRANCH   8  15
ATOM     15  C   UNL     1     -22.764 -16.791 -14.111  1.00  0.00    -0.030 A 
ATOM     16  C   UNL     1     -23.594 -16.921 -12.984  1.00  0.00    +0.005 A 
ATOM     17  C   UNL     1     -22.750 -17.835 -15.051  1.00  0.00    +0.005 A 
ATOM     18  C   UNL     1     -24.393 -18.054 -12.813  1.00  0.00    +0.000 A 
ATOM     19  C   UNL     1     -23.550 -18.967 -14.878  1.00  0.00    +0.000 A 
ATOM     20  C   UNL     1     -24.372 -19.074 -13.760  1.00  0.00    +0.000 A 
ENDBRANCH   8  15
ENDBRANCH   7   8
ENDBRANCH   1   7
BRANCH   6  21
ATOM     21  N   UNL     1     -20.597 -15.265 -11.459  1.00  0.00    -0.307 N 
BRANCH  21  22
ATOM     22  C   UNL     1     -20.888 -14.867 -10.074  1.00  0.00    +0.141 C 
BRANCH  22  23
ATOM     23  C   UNL     1     -22.396 -14.906  -9.708  1.00  0.00    +0.106 C 
BRANCH  23  24
ATOM     24  N   UNL     1     -22.761 -15.842  -8.631  1.00  0.00    -0.308 NA
ATOM     25  C   UNL     1     -23.103 -17.157  -9.172  1.00  0.00    +0.105 C 
ATOM     26  C   UNL     1     -21.695 -15.971  -7.637  1.00  0.00    +0.105 C 
ENDBRANCH  23  24
ENDBRANCH  22  23
ENDBRANCH  21  22
BRANCH  21  27
ATOM     27  C   UNL     1     -20.807 -14.302 -12.455  1.00  0.00    +0.269 CG0
ATOM     28  O   UNL     1     -20.044 -13.350 -12.642  1.00  0.00    -0.270 OA
ATOM     29  G   UNL     1     -22.083 -14.459 -13.291  1.00  0.00    +0.000 G0
ENDBRANCH  21  27
ENDBRANCH   6  21
TORSDOF 6
ENDMDL
MODEL 6
REMARK VINA RESULT:    -6.138      2.716      6.409
REMARK INTER + INTRA:         -10.624
REMARK INTER:                 -10.351
REMARK INTRA:                  -0.273
REMARK UNBOUND:                -0.540
REMARK SMILES CC(=O)OC1C(=O)N(CCN(C)C)c2ccccc2SC1c1ccccc1
REMARK SMILES IDX 19 1 18 2 17 3 16 4 15 5 14 6 20 7 21 8 5 9 4 11 2 12 3 13
REMARK SMILES IDX 1 14 22 15 23 16 27 17 24 18 26 19 25 20 8 21 9 22 10 23
REMARK SMILES IDX 11 24 12 25 13 26 6 27 7 28
REMARK H PARENT
REMARK Flexibility Score:   44.900
ROOT
ATOM      1  C   UNL     1     -22.681 -16.099 -10.652  1.00  0.00    +0.032 A 
ATOM      2  C   UNL     1     -23.212 -16.472  -9.405  1.00  0.00    +0.017 A 
ATOM      3  C   UNL     1     -24.235 -17.411  -9.315  1.00  0.00    +0.001 A 
ATOM      4  C   UNL     1     -24.756 -17.969 -10.475  1.00  0.00    +0.002 A 
ATOM      5  C   UNL     1     -24.245 -17.598 -11.722  1.00  0.00    +0.027 A 
ATOM      6  C   UNL     1     -23.188 -16.679 -11.840  1.00  0.00    +0.057 A 
ENDROOT
BRANCH   1   7
ATOM      7  S   UNL     1     -21.502 -14.750 -10.610  1.00  0.00    -0.111 SA
BRANCH   7   8
ATOM      8  C   UNL     1     -20.090 -15.500 -11.521  1.00  0.00    +0.132 C 
BRANCH   8   9
ATOM      9  C   UNL     1     -20.281 -15.594 -13.039  1.00  0.00    +0.283 CG0
ATOM     10  G   UNL     1     -21.748 -15.301 -13.380  1.00  0.00    +0.000 G0
BRANCH   9  11
ATOM     11  O   UNL     1     -19.470 -14.571 -13.663  1.00  0.00    -0.451 OA
BRANCH  11  12
ATOM     12  C   UNL     1     -18.184 -14.934 -13.917  1.00  0.00    +0.303 C 
ATOM     13  O   UNL     1     -17.197 -14.237 -13.729  1.00  0.00    -0.253 OA
ATOM     14  C   UNL     1     -18.149 -16.313 -14.497  1.00  0.00    +0.139 C 
ENDBRANCH  11  12
ENDBRANCH   9  11
ENDBRANCH   8   9
BRANCH   8  15
ATOM     15  C   UNL     1     -19.705 -16.831 -10.877  1.00  0.00    -0.030 A 
ATOM     16  C   UNL     1     -19.411 -17.976 -11.637  1.00  0.00    +0.005 A 
ATOM     17  C   UNL     1     -19.659 -16.932  -9.475  1.00  0.00    +0.005 A 
ATOM     18  C   UNL     1     -19.067 -19.177 -11.013  1.00  0.00    +0.000 A 
ATOM     19  C   UNL     1     -19.316 -18.135  -8.855  1.00  0.00    +0.000 A 
ATOM     20  C   UNL     1     -19.018 -19.256  -9.624  1.00  0.00    +0.000 A 
ENDBRANCH   8  15
ENDBRANCH   7   8
ENDBRANCH   1   7
BRANCH   6  21
ATOM     21  N   UNL     1     -22.684 -16.336 -13.142  1.00  0.00    -0.307 N 
BRANCH  21  22
ATOM     22  C   UNL     1     -23.175 -17.063 -14.322  1.00  0.00    +0.141 C 
BRANCH  22  23
ATOM     23  C   UNL     1     -22.338 -18.318 -14.685  1.00  0.00    +0.106 C 
BRANCH  23  24
ATOM     24  N   UNL     1     -22.967 -19.612 -14.369  1.00  0.00    -0.308 NA
ATOM     25  C   UNL     1     -24.203 -19.795 -15.129  1.00  0.00    +0.105 C 
ATOM     26  C   UNL     1     -22.059 -20.733 -14.611  1.00  0.00    +0.105 C 
ENDBRANCH  23  24
ENDBRANCH  22  23
ENDBRANCH  21  22
BRANCH  21  27
ATOM     27  C   UNL     1     -21.771 -15.299 -13.368  1.00  0.00    +0.269 CG0
ATOM     28  O   UNL     1     -22.093 -14.212 -13.857  1.00  0.00    -0.270 OA
ATOM     29  G   UNL     1     -20.307 -15.598 -13.020  1.00  0.00    +0.000 G0
ENDBRANCH  21  27
ENDBRANCH   6  21
TORSDOF 6
ENDMDL
MODEL 7
REMARK VINA RESULT:    -6.091      2.539      6.105
REMARK INTER + INTRA:         -10.548
REMARK INTER:                 -10.088
REMARK INTRA:                  -0.460
REMARK UNBOUND:                -0.540
REMARK SMILES CC(=O)OC1C(=O)N(CCN(C)C)c2ccccc2SC1c1ccccc1
REMARK SMILES IDX 19 1 18 2 17 3 16 4 15 5 14 6 20 7 21 8 5 9 4 11 2 12 3 13
REMARK SMILES IDX 1 14 22 15 23 16 27 17 24 18 26 19 25 20 8 21 9 22 10 23
REMARK SMILES IDX 11 24 12 25 13 26 6 27 7 28
REMARK H PARENT
REMARK Flexibility Score:   44.900
ROOT
ATOM      1  C   UNL     1     -21.329 -16.850 -13.193  1.00  0.00    +0.032 A 
ATOM      2  C   UNL     1     -20.443 -17.932 -13.057  1.00  0.00    +0.017 A 
ATOM      3  C   UNL     1     -19.172 -17.892 -13.623  1.00  0.00    +0.001 A 
ATOM      4  C   UNL     1     -18.783 -16.778 -14.355  1.00  0.00    +0.002 A 
ATOM      5  C   UNL     1     -19.660 -15.699 -14.509  1.00  0.00    +0.027 A 
ATOM      6  C   UNL     1     -20.936 -15.698 -13.917  1.00  0.00    +0.057 A 
ENDROOT
BRANCH   1   7
ATOM      7  S   UNL     1     -22.984 -17.132 -12.566  1.00  0.00    -0.111 SA
BRANCH   7   8
ATOM      8  C   UNL     1     -23.112 -15.784 -11.318  1.00  0.00    +0.132 C 
BRANCH   8   9
ATOM      9  C   UNL     1     -22.294 -14.529 -11.642  1.00  0.00    +0.283 CG0
ATOM     10  G   UNL     1     -22.634 -14.058 -13.062  1.00  0.00    +0.000 G0
BRANCH   9  11
ATOM     11  O   UNL     1     -22.686 -13.482 -10.723  1.00  0.00    -0.451 OA
BRANCH  11  12
ATOM     12  C   UNL     1     -21.662 -12.733 -10.235  1.00  0.00    +0.303 C 
ATOM     13  O   UNL     1     -20.857 -12.104 -10.906  1.00  0.00    -0.253 OA
ATOM     14  C   UNL     1     -21.638 -12.814  -8.741  1.00  0.00    +0.139 C 
ENDBRANCH  11  12
ENDBRANCH   9  11
ENDBRANCH   8   9
BRANCH   8  15
ATOM     15  C   UNL     1     -22.838 -16.342  -9.923  1.00  0.00    -0.030 A 
ATOM     16  C   UNL     1     -23.817 -16.356  -8.914  1.00  0.00    +0.005 A 
ATOM     17  C   UNL     1     -21.560 -16.844  -9.618  1.00  0.00    +0.005 A 
ATOM     18  C   UNL     1     -23.529 -16.869  -7.648  1.00  0.00    +0.000 A 
ATOM     19  C   UNL     1     -21.276 -17.356  -8.351  1.00  0.00    +0.000 A 
ATOM     20  C   UNL     1     -22.261 -17.371  -7.367  1.00  0.00    +0.000 A 
ENDBRANCH   8  15
ENDBRANCH   7   8
ENDBRANCH   1   7
BRANCH   6  21
ATOM     21  N   UNL     1     -21.799 -14.562 -14.089  1.00  0.00    -0.307 N 
BRANCH  21  22
ATOM     22  C   UNL     1     -21.885 -13.911 -15.404  1.00  0.00    +0.141 C 
BRANCH  22  23
ATOM     23  C   UNL     1     -22.665 -14.732 -16.466  1.00  0.00    +0.106 C 
BRANCH  23  24
ATOM     24  N   UNL     1     -24.009 -14.228 -16.794  1.00  0.00    -0.308 NA
ATOM     25  C   UNL     1     -25.019 -14.811 -15.910  1.00  0.00    +0.105 C 
ATOM     26  C   UNL     1     -24.073 -12.767 -16.731  1.00  0.00    +0.105 C 
ENDBRANCH  23  24
ENDBRANCH  22  23
ENDBRANCH  21  22
BRANCH  21  27
ATOM     27  C   UNL     1     -22.619 -14.054 -13.072  1.00  0.00    +0.269 CG0
ATOM     28  O   UNL     1     -23.516 -13.232 -13.278  1.00  0.00    -0.270 OA
ATOM     29  G   UNL     1     -22.312 -14.539 -11.649  1.00  0.00    +0.000 G0
ENDBRANCH  21  27
ENDBRANCH   6  21
TORSDOF 6
ENDMDL
MODEL 8
REMARK VINA RESULT:    -5.920      2.523      6.359
REMARK INTER + INTRA:         -10.266
REMARK INTER:                 -10.570
REMARK INTRA:                   0.303
REMARK UNBOUND:                -0.540
REMARK SMILES CC(=O)OC1C(=O)N(CCN(C)C)c2ccccc2SC1c1ccccc1
REMARK SMILES IDX 19 1 18 2 17 3 16 4 15 5 14 6 20 7 21 8 5 9 4 11 2 12 3 13
REMARK SMILES IDX 1 14 22 15 23 16 27 17 24 18 26 19 25 20 8 21 9 22 10 23
REMARK SMILES IDX 11 24 12 25 13 26 6 27 7 28
REMARK H PARENT
REMARK Flexibility Score:   44.900
ROOT
ATOM      1  C   UNL     1     -20.075 -15.765 -13.010  1.00  0.00    +0.032 A 
ATOM      2  C   UNL     1     -18.941 -16.377 -13.571  1.00  0.00    +0.017 A 
ATOM      3  C   UNL     1     -17.903 -15.613 -14.098  1.00  0.00    +0.001 A 
ATOM      4  C   UNL     1     -18.001 -14.228 -14.092  1.00  0.00    +0.002 A 
ATOM      5  C   UNL     1     -19.130 -13.607 -13.548  1.00  0.00    +0.027 A 
ATOM      6  C   UNL     1     -20.176 -14.354 -12.976  1.00  0.00    +0.057 A 
ENDROOT
BRANCH   1   7
ATOM      7  S   UNL     1     -21.396 -16.883 -12.545  1.00  0.00    -0.111 SA
BRANCH   7   8
ATOM      8  C   UNL     1     -21.529 -16.526 -10.744  1.00  0.00    +0.132 C 
BRANCH   8   9
ATOM      9  C   UNL     1     -21.231 -15.075 -10.353  1.00  0.00    +0.283 CG0
ATOM     10  G   UNL     1     -22.000 -14.133 -11.288  1.00  0.00    +0.000 G0
BRANCH   9  11
ATOM     11  O   UNL     1     -21.720 -14.858  -9.008  1.00  0.00    -0.451 OA
BRANCH  11  12
ATOM     12  C   UNL     1     -20.768 -14.511  -8.100  1.00  0.00    +0.303 C 
ATOM     13  O   UNL     1     -19.927 -15.262  -7.629  1.00  0.00    -0.253 OA
ATOM     14  C   UNL     1     -20.918 -13.069  -7.730  1.00  0.00    +0.139 C 
ENDBRANCH  11  12
ENDBRANCH   9  11
ENDBRANCH   8   9
BRANCH   8  15
ATOM     15  C   UNL     1     -20.713 -17.546  -9.952  1.00  0.00    -0.030 A 
ATOM     16  C   UNL     1     -19.409 -17.915 -10.323  1.00  0.00    +0.005 A 
ATOM     17  C   UNL     1     -21.283 -18.158  -8.821  1.00  0.00    +0.005 A 
ATOM     18  C   UNL     1     -18.694 -18.855  -9.577  1.00  0.00    +0.000 A 
ATOM     19  C   UNL     1     -20.565 -19.097  -8.078  1.00  0.00    +0.000 A 
ATOM     20  C   UNL     1     -19.270 -19.444  -8.455  1.00  0.00    +0.000 A 
ENDBRANCH   8  15
ENDBRANCH   7   8
ENDBRANCH   1   7
BRANCH   6  21
ATOM     21  N   UNL     1     -21.312 -13.674 -12.415  1.00  0.00    -0.307 N 
BRANCH  21  22
ATOM     22  C   UNL     1     -21.827 -12.463 -13.071  1.00  0.00    +0.141 C 
BRANCH  22  23
ATOM     23  C   UNL     1     -23.164 -12.676 -13.831  1.00  0.00    +0.106 C 
BRANCH  23  24
ATOM     24  N   UNL     1     -23.101 -12.476 -15.289  1.00  0.00    -0.308 NA
ATOM     25  C   UNL     1     -21.939 -13.154 -15.863  1.00  0.00    +0.105 C 
ATOM     26  C   UNL     1     -24.324 -12.927 -15.954  1.00  0.00    +0.105 C 
ENDBRANCH  23  24
ENDBRANCH  22  23
ENDBRANCH  21  22
BRANCH  21  27
ATOM     27  C   UNL     1     -22.003 -14.129 -11.285  1.00  0.00    +0.269 CG0
ATOM     28  O   UNL     1     -23.156 -13.781 -11.016  1.00  0.00    -0.270 OA
ATOM     29  G   UNL     1     -21.227 -15.063 -10.347  1.00  0.00    +0.000 G0
ENDBRANCH  21  27
ENDBRANCH   6  21
TORSDOF 6
ENDMDL
MODEL 9
REMARK VINA RESULT:    -5.896      2.667      5.493
REMARK INTER + INTRA:         -10.227
REMARK INTER:                 -10.411
REMARK INTRA:                   0.184
REMARK UNBOUND:                -0.540
REMARK SMILES CC(=O)OC1C(=O)N(CCN(C)C)c2ccccc2SC1c1ccccc1
REMARK SMILES IDX 19 1 18 2 17 3 16 4 15 5 14 6 20 7 21 8 5 9 4 11 2 12 3 13
REMARK SMILES IDX 1 14 22 15 23 16 27 17 24 18 26 19 25 20 8 21 9 22 10 23
REMARK SMILES IDX 11 24 12 25 13 26 6 27 7 28
REMARK H PARENT
REMARK Flexibility Score:   44.900
ROOT
ATOM      1  C   UNL     1     -20.730 -14.770 -14.095  1.00  0.00    +0.032 A 
ATOM      2  C   UNL     1     -20.819 -13.480 -14.645  1.00  0.00    +0.017 A 
ATOM      3  C   UNL     1     -21.855 -13.143 -15.511  1.00  0.00    +0.001 A 
ATOM      4  C   UNL     1     -22.799 -14.100 -15.856  1.00  0.00    +0.002 A 
ATOM      5  C   UNL     1     -22.715 -15.391 -15.325  1.00  0.00    +0.027 A 
ATOM      6  C   UNL     1     -21.700 -15.749 -14.420  1.00  0.00    +0.057 A 
ENDROOT
BRANCH   1   7
ATOM      7  S   UNL     1     -19.243 -15.097 -13.149  1.00  0.00    -0.111 SA
BRANCH   7   8
ATOM      8  C   UNL     1     -19.966 -15.747 -11.586  1.00  0.00    +0.132 C 
BRANCH   8   9
ATOM      9  C   UNL     1     -20.506 -17.179 -11.675  1.00  0.00    +0.283 CG0
ATOM     10  G   UNL     1     -20.581 -17.599 -13.149  1.00  0.00    +0.000 G0
BRANCH   9  11
ATOM     11  O   UNL     1     -19.567 -18.060 -11.012  1.00  0.00    -0.451 OA
BRANCH  11  12
ATOM     12  C   UNL     1     -19.372 -17.801  -9.692  1.00  0.00    +0.303 C 
ATOM     13  O   UNL     1     -18.361 -17.321  -9.202  1.00  0.00    -0.253 OA
ATOM     14  C   UNL     1     -20.574 -18.224  -8.906  1.00  0.00    +0.139 C 
ENDBRANCH  11  12
ENDBRANCH   9  11
ENDBRANCH   8   9
BRANCH   8  15
ATOM     15  C   UNL     1     -20.983 -14.751 -11.032  1.00  0.00    -0.030 A 
ATOM     16  C   UNL     1     -20.777 -13.361 -11.082  1.00  0.00    +0.005 A 
ATOM     17  C   UNL     1     -22.161 -15.228 -10.431  1.00  0.00    +0.005 A 
ATOM     18  C   UNL     1     -21.727 -12.480 -10.561  1.00  0.00    +0.000 A 
ATOM     19  C   UNL     1     -23.109 -14.344  -9.911  1.00  0.00    +0.000 A 
ATOM     20  C   UNL     1     -22.892 -12.970  -9.978  1.00  0.00    +0.000 A 
ENDBRANCH   8  15
ENDBRANCH   7   8
ENDBRANCH   1   7
BRANCH   6  21
ATOM     21  N   UNL     1     -21.659 -17.083 -13.887  1.00  0.00    -0.307 N 
BRANCH  21  22
ATOM     22  C   UNL     1     -22.779 -18.000 -14.145  1.00  0.00    +0.141 C 
BRANCH  22  23
ATOM     23  C   UNL     1     -22.368 -19.318 -14.852  1.00  0.00    +0.106 C 
BRANCH  23  24
ATOM     24  N   UNL     1     -23.232 -20.479 -14.578  1.00  0.00    -0.308 NA
ATOM     25  C   UNL     1     -24.471 -20.406 -15.353  1.00  0.00    +0.105 C 
ATOM     26  C   UNL     1     -22.547 -21.744 -14.847  1.00  0.00    +0.105 C 
ENDBRANCH  23  24
ENDBRANCH  22  23
ENDBRANCH  21  22
BRANCH  21  27
ATOM     27  C   UNL     1     -20.574 -17.593 -13.163  1.00  0.00    +0.269 CG0
ATOM     28  O   UNL     1     -19.738 -18.359 -13.651  1.00  0.00    -0.270 OA
ATOM     29  G   UNL     1     -20.496 -17.187 -11.685  1.00  0.00    +0.000 G0
ENDBRANCH  21  27
ENDBRANCH   6  21
TORSDOF 6
ENDMDL
