MODEL 1
REMARK VINA RESULT:    -7.258      0.000      0.000
REMARK INTER + INTRA:          -9.332
REMARK INTER:                  -8.955
REMARK INTRA:                  -0.377
REMARK UNBOUND:                -0.377
REMARK SMILES COC(=O)C(c1ccccc1Cl)N1CCc2sccc2C1
REMARK SMILES IDX 3 1 4 2 2 3 1 4 5 5 6 6 7 7 11 8 8 9 10 10 9 11 12 12 13 13
REMARK SMILES IDX 14 14 21 15 15 16 20 17 16 18 19 19 17 20 18 21
REMARK H PARENT
ROOT
ATOM      1  C   UNL     1     -20.539 -16.007 -11.675  1.00  0.00    +0.327 C 
ATOM      2  O   UNL     1     -20.859 -17.188 -11.790  1.00  0.00    -0.250 OA
ENDROOT
BRANCH   1   3
ATOM      3  O   UNL     1     -19.433 -15.461 -12.249  1.00  0.00    -0.468 OA
ATOM      4  C   UNL     1     -18.865 -16.236 -13.303  1.00  0.00    +0.282 C 
ENDBRANCH   1   3
BRANCH   1   5
ATOM      5  C   UNL     1     -21.386 -14.985 -10.878  1.00  0.00    +0.200 C 
BRANCH   5   6
ATOM      6  C   UNL     1     -21.927 -15.662  -9.616  1.00  0.00    -0.001 A 
ATOM      7  C   UNL     1     -23.320 -15.879  -9.538  1.00  0.00    +0.007 A 
ATOM      8  C   UNL     1     -21.139 -16.054  -8.519  1.00  0.00    +0.046 A 
ATOM      9  C   UNL     1     -23.903 -16.474  -8.417  1.00  0.00    +0.000 A 
ATOM     10  C   UNL     1     -21.731 -16.652  -7.397  1.00  0.00    +0.021 A 
ATOM     11  C   UNL     1     -23.107 -16.862  -7.346  1.00  0.00    +0.002 A 
ATOM     12 Cl   UNL     1     -19.425 -15.855  -8.463  1.00  0.00    -0.084 Cl
ENDBRANCH   5   6
BRANCH   5  13
ATOM     13  N   UNL     1     -22.402 -14.248 -11.700  1.00  0.00    -0.282 NA
ATOM     14  C   UNL     1     -22.097 -12.794 -11.772  1.00  0.00    +0.091 C 
ATOM     15  C   UNL     1     -22.470 -14.820 -13.073  1.00  0.00    +0.122 C 
ATOM     16  C   UNL     1     -23.244 -11.990 -12.424  1.00  0.00    +0.062 C 
ATOM     17  C   UNL     1     -23.372 -13.996 -13.951  1.00  0.00    -0.020 A 
ATOM     18  C   UNL     1     -23.699 -12.689 -13.658  1.00  0.00    +0.010 A 
ATOM     19  C   UNL     1     -23.974 -14.408 -15.180  1.00  0.00    +0.017 A 
ATOM     20  S   UNL     1     -24.705 -11.970 -14.819  1.00  0.00    -0.149 S 
ATOM     21  C   UNL     1     -24.726 -13.404 -15.754  1.00  0.00    +0.065 A 
ENDBRANCH   5  13
ENDBRANCH   1   5
TORSDOF 4
ENDMDL
MODEL 2
REMARK VINA RESULT:    -7.187      4.014      4.971
REMARK INTER + INTRA:          -9.245
REMARK INTER:                  -8.768
REMARK INTRA:                  -0.478
REMARK UNBOUND:                -0.377
REMARK SMILES COC(=O)C(c1ccccc1Cl)N1CCc2sccc2C1
REMARK SMILES IDX 3 1 4 2 2 3 1 4 5 5 6 6 7 7 11 8 8 9 10 10 9 11 12 12 13 13
REMARK SMILES IDX 14 14 21 15 15 16 20 17 16 18 19 19 17 20 18 21
REMARK H PARENT
ROOT
ATOM      1  C   UNL     1     -20.212 -16.393 -13.088  1.00  0.00    +0.327 C 
ATOM      2  O   UNL     1     -19.617 -16.996 -12.197  1.00  0.00    -0.250 OA
ENDROOT
BRANCH   1   3
ATOM      3  O   UNL     1     -19.595 -15.792 -14.141  1.00  0.00    -0.468 OA
ATOM      4  C   UNL     1     -18.379 -15.124 -13.814  1.00  0.00    +0.282 C 
ENDBRANCH   1   3
BRANCH   1   5
ATOM      5  C   UNL     1     -21.756 -16.273 -13.129  1.00  0.00    +0.200 C 
BRANCH   5   6
ATOM      6  C   UNL     1     -22.227 -15.489 -11.901  1.00  0.00    -0.001 A 
ATOM      7  C   UNL     1     -22.699 -16.230 -10.796  1.00  0.00    +0.007 A 
ATOM      8  C   UNL     1     -22.254 -14.086 -11.810  1.00  0.00    +0.046 A 
ATOM      9  C   UNL     1     -23.166 -15.598  -9.642  1.00  0.00    +0.000 A 
ATOM     10  C   UNL     1     -22.722 -13.458 -10.647  1.00  0.00    +0.021 A 
ATOM     11  C   UNL     1     -23.176 -14.210  -9.567  1.00  0.00    +0.002 A 
ATOM     12 Cl   UNL     1     -21.713 -13.043 -13.076  1.00  0.00    -0.084 Cl
ENDBRANCH   5   6
BRANCH   5  13
ATOM     13  N   UNL     1     -22.471 -17.567 -13.382  1.00  0.00    -0.282 NA
ATOM     14  C   UNL     1     -23.712 -17.361 -14.175  1.00  0.00    +0.091 C 
ATOM     15  C   UNL     1     -21.573 -18.525 -14.084  1.00  0.00    +0.122 C 
ATOM     16  C   UNL     1     -24.571 -18.642 -14.256  1.00  0.00    +0.062 C 
ATOM     17  C   UNL     1     -22.322 -19.769 -14.478  1.00  0.00    -0.020 A 
ATOM     18  C   UNL     1     -23.697 -19.804 -14.580  1.00  0.00    +0.010 A 
ATOM     19  C   UNL     1     -21.754 -21.034 -14.822  1.00  0.00    +0.017 A 
ATOM     20  S   UNL     1     -24.298 -21.313 -15.070  1.00  0.00    -0.149 S 
ATOM     21  C   UNL     1     -22.716 -21.963 -15.161  1.00  0.00    +0.065 A 
ENDBRANCH   5  13
ENDBRANCH   1   5
TORSDOF 4
ENDMDL
MODEL 3
REMARK VINA RESULT:    -7.042      2.971      5.989
REMARK INTER + INTRA:          -9.067
REMARK INTER:                  -8.528
REMARK INTRA:                  -0.538
REMARK UNBOUND:                -0.377
REMARK SMILES COC(=O)C(c1ccccc1Cl)N1CCc2sccc2C1
REMARK SMILES IDX 3 1 4 2 2 3 1 4 5 5 6 6 7 7 11 8 8 9 10 10 9 11 12 12 13 13
REMARK SMILES IDX 14 14 21 15 15 16 20 17 16 18 19 19 17 20 18 21
REMARK H PARENT
ROOT
ATOM      1  C   UNL     1     -21.433 -16.703 -14.410  1.00  0.00    +0.327 C 
ATOM      2  O   UNL     1     -20.227 -16.484 -14.510  1.00  0.00    -0.250 OA
ENDROOT
BRANCH   1   3
ATOM      3  O   UNL     1     -22.040 -17.830 -14.870  1.00  0.00    -0.468 OA
ATOM      4  C   UNL     1     -23.118 -18.298 -14.061  1.00  0.00    +0.282 C 
ENDBRANCH   1   3
BRANCH   1   5
ATOM      5  C   UNL     1     -22.406 -15.720 -13.715  1.00  0.00    +0.200 C 
BRANCH   5   6
ATOM      6  C   UNL     1     -22.950 -14.737 -14.755  1.00  0.00    -0.001 A 
ATOM      7  C   UNL     1     -24.261 -14.953 -15.233  1.00  0.00    +0.007 A 
ATOM      8  C   UNL     1     -22.226 -13.656 -15.289  1.00  0.00    +0.046 A 
ATOM      9  C   UNL     1     -24.831 -14.117 -16.196  1.00  0.00    +0.000 A 
ATOM     10  C   UNL     1     -22.806 -12.820 -16.253  1.00  0.00    +0.021 A 
ATOM     11  C   UNL     1     -24.103 -13.048 -16.705  1.00  0.00    +0.002 A 
ATOM     12 Cl   UNL     1     -20.615 -13.264 -14.807  1.00  0.00    -0.084 Cl
ENDBRANCH   5   6
BRANCH   5  13
ATOM     13  N   UNL     1     -21.866 -15.099 -12.460  1.00  0.00    -0.282 NA
ATOM     14  C   UNL     1     -22.829 -14.130 -11.871  1.00  0.00    +0.091 C 
ATOM     15  C   UNL     1     -21.533 -16.153 -11.463  1.00  0.00    +0.122 C 
ATOM     16  C   UNL     1     -22.206 -13.322 -10.711  1.00  0.00    +0.062 C 
ATOM     17  C   UNL     1     -21.134 -15.539 -10.149  1.00  0.00    -0.020 A 
ATOM     18  C   UNL     1     -21.471 -14.248  -9.803  1.00  0.00    +0.010 A 
ATOM     19  C   UNL     1     -20.409 -16.176  -9.095  1.00  0.00    +0.017 A 
ATOM     20  S   UNL     1     -20.932 -13.802  -8.258  1.00  0.00    -0.149 S 
ATOM     21  C   UNL     1     -20.227 -15.343  -8.010  1.00  0.00    +0.065 A 
ENDBRANCH   5  13
ENDBRANCH   1   5
TORSDOF 4
ENDMDL
MODEL 4
REMARK VINA RESULT:    -7.003      3.616      6.526
REMARK INTER + INTRA:          -9.018
REMARK INTER:                  -8.669
REMARK INTRA:                  -0.349
REMARK UNBOUND:                -0.377
REMARK SMILES COC(=O)C(c1ccccc1Cl)N1CCc2sccc2C1
REMARK SMILES IDX 3 1 4 2 2 3 1 4 5 5 6 6 7 7 11 8 8 9 10 10 9 11 12 12 13 13
REMARK SMILES IDX 14 14 21 15 15 16 20 17 16 18 19 19 17 20 18 21
REMARK H PARENT
ROOT
ATOM      1  C   UNL     1     -22.371 -14.469  -9.597  1.00  0.00    +0.327 C 
ATOM      2  O   UNL     1     -23.379 -15.127  -9.347  1.00  0.00    -0.250 OA
ENDROOT
BRANCH   1   3
ATOM      3  O   UNL     1     -22.071 -13.284  -9.000  1.00  0.00    -0.468 OA
ATOM      4  C   UNL     1     -20.911 -13.312  -8.171  1.00  0.00    +0.282 C 
ENDBRANCH   1   3
BRANCH   1   5
ATOM      5  C   UNL     1     -21.299 -14.934 -10.613  1.00  0.00    +0.200 C 
BRANCH   5   6
ATOM      6  C   UNL     1     -21.753 -14.556 -12.025  1.00  0.00    -0.001 A 
ATOM      7  C   UNL     1     -22.502 -15.510 -12.747  1.00  0.00    +0.007 A 
ATOM      8  C   UNL     1     -21.449 -13.340 -12.664  1.00  0.00    +0.046 A 
ATOM      9  C   UNL     1     -22.942 -15.257 -14.048  1.00  0.00    +0.000 A 
ATOM     10  C   UNL     1     -21.895 -13.092 -13.969  1.00  0.00    +0.021 A 
ATOM     11  C   UNL     1     -22.640 -14.046 -14.659  1.00  0.00    +0.002 A 
ATOM     12 Cl   UNL     1     -20.541 -12.076 -11.915  1.00  0.00    -0.084 Cl
ENDBRANCH   5   6
BRANCH   5  13
ATOM     13  N   UNL     1     -20.857 -16.357 -10.437  1.00  0.00    -0.282 NA
ATOM     14  C   UNL     1     -19.446 -16.548 -10.867  1.00  0.00    +0.091 C 
ATOM     15  C   UNL     1     -21.016 -16.776  -9.017  1.00  0.00    +0.122 C 
ATOM     16  C   UNL     1     -19.045 -18.040 -10.902  1.00  0.00    +0.062 C 
ATOM     17  C   UNL     1     -20.436 -18.147  -8.797  1.00  0.00    -0.020 A 
ATOM     18  C   UNL     1     -19.512 -18.706  -9.654  1.00  0.00    +0.010 A 
ATOM     19  C   UNL     1     -20.714 -19.025  -7.704  1.00  0.00    +0.017 A 
ATOM     20  S   UNL     1     -18.989 -20.246  -9.169  1.00  0.00    -0.149 S 
ATOM     21  C   UNL     1     -19.996 -20.201  -7.785  1.00  0.00    +0.065 A 
ENDBRANCH   5  13
ENDBRANCH   1   5
TORSDOF 4
ENDMDL
MODEL 5
REMARK VINA RESULT:    -6.954      3.959      6.595
REMARK INTER + INTRA:          -8.957
REMARK INTER:                  -9.024
REMARK INTRA:                   0.067
REMARK UNBOUND:                -0.377
REMARK SMILES COC(=O)C(c1ccccc1Cl)N1CCc2sccc2C1
REMARK SMILES IDX 3 1 4 2 2 3 1 4 5 5 6 6 7 7 11 8 8 9 10 10 9 11 12 12 13 13
REMARK SMILES IDX 14 14 21 15 15 16 20 17 16 18 19 19 17 20 18 21
REMARK H PARENT
ROOT
ATOM      1  C   UNL     1     -22.437 -14.761 -12.266  1.00  0.00    +0.327 C 
ATOM      2  O   UNL     1     -22.864 -15.453 -11.343  1.00  0.00    -0.250 OA
ENDROOT
BRANCH   1   3
ATOM      3  O   UNL     1     -22.266 -13.414 -12.189  1.00  0.00    -0.468 OA
ATOM      4  C   UNL     1     -20.930 -12.999 -11.916  1.00  0.00    +0.282 C 
ENDBRANCH   1   3
BRANCH   1   5
ATOM      5  C   UNL     1     -22.012 -15.358 -13.631  1.00  0.00    +0.200 C 
BRANCH   5   6
ATOM      6  C   UNL     1     -22.816 -14.681 -14.744  1.00  0.00    -0.001 A 
ATOM      7  C   UNL     1     -24.156 -15.089 -14.921  1.00  0.00    +0.007 A 
ATOM      8  C   UNL     1     -22.305 -13.707 -15.620  1.00  0.00    +0.046 A 
ATOM      9  C   UNL     1     -24.958 -14.538 -15.923  1.00  0.00    +0.000 A 
ATOM     10  C   UNL     1     -23.117 -13.157 -16.622  1.00  0.00    +0.021 A 
ATOM     11  C   UNL     1     -24.438 -13.570 -16.773  1.00  0.00    +0.002 A 
ATOM     12 Cl   UNL     1     -20.688 -13.107 -15.532  1.00  0.00    -0.084 Cl
ENDBRANCH   5   6
BRANCH   5  13
ATOM     13  N   UNL     1     -21.992 -16.858 -13.670  1.00  0.00    -0.282 NA
ATOM     14  C   UNL     1     -22.609 -17.381 -14.918  1.00  0.00    +0.091 C 
ATOM     15  C   UNL     1     -20.596 -17.360 -13.545  1.00  0.00    +0.122 C 
ATOM     16  C   UNL     1     -22.797 -18.913 -14.878  1.00  0.00    +0.062 C 
ATOM     17  C   UNL     1     -20.545 -18.852 -13.735  1.00  0.00    -0.020 A 
ATOM     18  C   UNL     1     -21.549 -19.551 -14.372  1.00  0.00    +0.010 A 
ATOM     19  C   UNL     1     -19.489 -19.727 -13.334  1.00  0.00    +0.017 A 
ATOM     20  S   UNL     1     -21.241 -21.215 -14.486  1.00  0.00    -0.149 S 
ATOM     21  C   UNL     1     -19.741 -21.039 -13.679  1.00  0.00    +0.065 A 
ENDBRANCH   5  13
ENDBRANCH   1   5
TORSDOF 4
ENDMDL
MODEL 6
REMARK VINA RESULT:    -6.796      4.207      6.006
REMARK INTER + INTRA:          -8.762
REMARK INTER:                  -8.367
REMARK INTRA:                  -0.396
REMARK UNBOUND:                -0.377
REMARK SMILES COC(=O)C(c1ccccc1Cl)N1CCc2sccc2C1
REMARK SMILES IDX 3 1 4 2 2 3 1 4 5 5 6 6 7 7 11 8 8 9 10 10 9 11 12 12 13 13
REMARK SMILES IDX 14 14 21 15 15 16 20 17 16 18 19 19 17 20 18 21
REMARK H PARENT
ROOT
ATOM      1  C   UNL     1     -23.903 -14.285 -15.207  1.00  0.00    +0.327 C 
ATOM      2  O   UNL     1     -24.610 -13.307 -14.972  1.00  0.00    -0.250 OA
ENDROOT
BRANCH   1   3
ATOM      3  O   UNL     1     -23.704 -14.796 -16.452  1.00  0.00    -0.468 OA
ATOM      4  C   UNL     1     -24.136 -13.952 -17.517  1.00  0.00    +0.282 C 
ENDBRANCH   1   3
BRANCH   1   5
ATOM      5  C   UNL     1     -23.126 -15.040 -14.100  1.00  0.00    +0.200 C 
BRANCH   5   6
ATOM      6  C   UNL     1     -21.962 -14.167 -13.624  1.00  0.00    -0.001 A 
ATOM      7  C   UNL     1     -20.939 -13.880 -14.555  1.00  0.00    +0.007 A 
ATOM      8  C   UNL     1     -21.825 -13.658 -12.320  1.00  0.00    +0.046 A 
ATOM      9  C   UNL     1     -19.831 -13.107 -14.202  1.00  0.00    +0.000 A 
ATOM     10  C   UNL     1     -20.711 -12.881 -11.974  1.00  0.00    +0.021 A 
ATOM     11  C   UNL     1     -19.718 -12.605 -12.911  1.00  0.00    +0.002 A 
ATOM     12 Cl   UNL     1     -22.988 -13.923 -11.072  1.00  0.00    -0.084 Cl
ENDBRANCH   5   6
BRANCH   5  13
ATOM     13  N   UNL     1     -22.770 -16.455 -14.450  1.00  0.00    -0.282 NA
ATOM     14  C   UNL     1     -21.685 -16.978 -13.578  1.00  0.00    +0.091 C 
ATOM     15  C   UNL     1     -23.970 -17.330 -14.347  1.00  0.00    +0.122 C 
ATOM     16  C   UNL     1     -21.156 -18.345 -14.063  1.00  0.00    +0.062 C 
ATOM     17  C   UNL     1     -23.597 -18.774 -14.547  1.00  0.00    -0.020 A 
ATOM     18  C   UNL     1     -22.307 -19.234 -14.388  1.00  0.00    +0.010 A 
ATOM     19  C   UNL     1     -24.481 -19.845 -14.884  1.00  0.00    +0.017 A 
ATOM     20  S   UNL     1     -22.151 -20.904 -14.639  1.00  0.00    -0.149 S 
ATOM     21  C   UNL     1     -23.825 -21.055 -14.969  1.00  0.00    +0.065 A 
ENDBRANCH   5  13
ENDBRANCH   1   5
TORSDOF 4
ENDMDL
MODEL 7
REMARK VINA RESULT:    -6.680      3.043      6.025
REMARK INTER + INTRA:          -8.619
REMARK INTER:                  -8.348
REMARK INTRA:                  -0.272
REMARK UNBOUND:                -0.377
REMARK SMILES COC(=O)C(c1ccccc1Cl)N1CCc2sccc2C1
REMARK SMILES IDX 3 1 4 2 2 3 1 4 5 5 6 6 7 7 11 8 8 9 10 10 9 11 12 12 13 13
REMARK SMILES IDX 14 14 21 15 15 16 20 17 16 18 19 19 17 20 18 21
REMARK H PARENT
ROOT
ATOM      1  C   UNL     1     -20.925 -15.127 -13.331  1.00  0.00    +0.327 C 
ATOM      2  O   UNL     1     -20.186 -16.087 -13.540  1.00  0.00    -0.250 OA
ENDROOT
BRANCH   1   3
ATOM      3  O   UNL     1     -20.544 -13.829 -13.480  1.00  0.00    -0.468 OA
ATOM      4  C   UNL     1     -19.242 -13.652 -14.035  1.00  0.00    +0.282 C 
ENDBRANCH   1   3
BRANCH   1   5
ATOM      5  C   UNL     1     -22.403 -15.287 -12.897  1.00  0.00    +0.200 C 
BRANCH   5   6
ATOM      6  C   UNL     1     -23.231 -14.161 -13.521  1.00  0.00    -0.001 A 
ATOM      7  C   UNL     1     -23.521 -13.040 -12.713  1.00  0.00    +0.007 A 
ATOM      8  C   UNL     1     -23.749 -14.180 -14.829  1.00  0.00    +0.046 A 
ATOM      9  C   UNL     1     -24.286 -11.975 -13.194  1.00  0.00    +0.000 A 
ATOM     10  C   UNL     1     -24.514 -13.106 -15.305  1.00  0.00    +0.021 A 
ATOM     11  C   UNL     1     -24.781 -12.007 -14.492  1.00  0.00    +0.002 A 
ATOM     12 Cl   UNL     1     -23.483 -15.478 -15.936  1.00  0.00    -0.084 Cl
ENDBRANCH   5   6
BRANCH   5  13
ATOM     13  N   UNL     1     -22.596 -15.490 -11.423  1.00  0.00    -0.282 NA
ATOM     14  C   UNL     1     -23.129 -16.846 -11.122  1.00  0.00    +0.091 C 
ATOM     15  C   UNL     1     -21.313 -15.276 -10.699  1.00  0.00    +0.122 C 
ATOM     16  C   UNL     1     -23.541 -16.994  -9.641  1.00  0.00    +0.062 C 
ATOM     17  C   UNL     1     -21.457 -15.623  -9.242  1.00  0.00    -0.020 A 
ATOM     18  C   UNL     1     -22.468 -16.434  -8.771  1.00  0.00    +0.010 A 
ATOM     19  C   UNL     1     -20.596 -15.213  -8.179  1.00  0.00    +0.017 A 
ATOM     20  S   UNL     1     -22.394 -16.699  -7.097  1.00  0.00    -0.149 S 
ATOM     21  C   UNL     1     -20.992 -15.725  -6.960  1.00  0.00    +0.065 A 
ENDBRANCH   5  13
ENDBRANCH   1   5
TORSDOF 4
ENDMDL
MODEL 8
REMARK VINA RESULT:    -6.569      3.857      5.514
REMARK INTER + INTRA:          -8.483
REMARK INTER:                  -8.213
REMARK INTRA:                  -0.269
REMARK UNBOUND:                -0.377
REMARK SMILES COC(=O)C(c1ccccc1Cl)N1CCc2sccc2C1
REMARK SMILES IDX 3 1 4 2 2 3 1 4 5 5 6 6 7 7 11 8 8 9 10 10 9 11 12 12 13 13
REMARK SMILES IDX 14 14 21 15 15 16 20 17 16 18 19 19 17 20 18 21
REMARK H PARENT
ROOT
ATOM      1  C   UNL     1     -23.325 -14.179 -14.808  1.00  0.00    +0.327 C 
ATOM      2  O   UNL     1     -24.163 -13.279 -14.797  1.00  0.00    -0.250 OA
ENDROOT
BRANCH   1   3
ATOM      3  O   UNL     1     -22.698 -14.619 -15.933  1.00  0.00    -0.468 OA
ATOM      4  C   UNL     1     -23.325 -14.230 -17.153  1.00  0.00    +0.282 C 
ENDBRANCH   1   3
BRANCH   1   5
ATOM      5  C   UNL     1     -22.860 -14.904 -13.521  1.00  0.00    +0.200 C 
BRANCH   5   6
ATOM      6  C   UNL     1     -22.350 -13.864 -12.519  1.00  0.00    -0.001 A 
ATOM      7  C   UNL     1     -23.053 -13.732 -11.302  1.00  0.00    +0.007 A 
ATOM      8  C   UNL     1     -21.253 -13.011 -12.740  1.00  0.00    +0.046 A 
ATOM      9  C   UNL     1     -22.671 -12.797 -10.338  1.00  0.00    +0.000 A 
ATOM     10  C   UNL     1     -20.874 -12.076 -11.767  1.00  0.00    +0.021 A 
ATOM     11  C   UNL     1     -21.578 -11.970 -10.570  1.00  0.00    +0.002 A 
ATOM     12 Cl   UNL     1     -20.296 -13.050 -14.176  1.00  0.00    -0.084 Cl
ENDBRANCH   5   6
BRANCH   5  13
ATOM     13  N   UNL     1     -21.946 -16.068 -13.763  1.00  0.00    -0.282 NA
ATOM     14  C   UNL     1     -20.976 -16.244 -12.650  1.00  0.00    +0.091 C 
ATOM     15  C   UNL     1     -22.736 -17.316 -13.950  1.00  0.00    +0.122 C 
ATOM     16  C   UNL     1     -19.891 -17.292 -12.982  1.00  0.00    +0.062 C 
ATOM     17  C   UNL     1     -21.830 -18.514 -14.042  1.00  0.00    -0.020 A 
ATOM     18  C   UNL     1     -20.534 -18.500 -13.571  1.00  0.00    +0.010 A 
ATOM     19  C   UNL     1     -22.164 -19.796 -14.577  1.00  0.00    +0.017 A 
ATOM     20  S   UNL     1     -19.731 -19.982 -13.764  1.00  0.00    -0.149 S 
ATOM     21  C   UNL     1     -21.113 -20.686 -14.490  1.00  0.00    +0.065 A 
ENDBRANCH   5  13
ENDBRANCH   1   5
TORSDOF 4
ENDMDL
MODEL 9
REMARK VINA RESULT:    -6.561      3.105      5.934
REMARK INTER + INTRA:          -8.472
REMARK INTER:                  -8.115
REMARK INTRA:                  -0.358
REMARK UNBOUND:                -0.377
REMARK SMILES COC(=O)C(c1ccccc1Cl)N1CCc2sccc2C1
REMARK SMILES IDX 3 1 4 2 2 3 1 4 5 5 6 6 7 7 11 8 8 9 10 10 9 11 12 12 13 13
REMARK SMILES IDX 14 14 21 15 15 16 20 17 16 18 19 19 17 20 18 21
REMARK H PARENT
ROOT
ATOM      1  C   UNL     1     -21.407 -16.677 -14.166  1.00  0.00    +0.327 C 
ATOM      2  O   UNL     1     -21.605 -17.867 -14.405  1.00  0.00    -0.250 OA
ENDROOT
BRANCH   1   3
ATOM      3  O   UNL     1     -20.279 -16.008 -14.527  1.00  0.00    -0.468 OA
ATOM      4  C   UNL     1     -19.073 -16.536 -13.978  1.00  0.00    +0.282 C 
ENDBRANCH   1   3
BRANCH   1   5
ATOM      5  C   UNL     1     -22.447 -15.785 -13.444  1.00  0.00    +0.200 C 
BRANCH   5   6
ATOM      6  C   UNL     1     -23.128 -14.880 -14.475  1.00  0.00    -0.001 A 
ATOM      7  C   UNL     1     -22.545 -13.617 -14.719  1.00  0.00    +0.007 A 
ATOM      8  C   UNL     1     -24.308 -15.205 -15.168  1.00  0.00    +0.046 A 
ATOM      9  C   UNL     1     -23.109 -12.720 -15.629  1.00  0.00    +0.000 A 
ATOM     10  C   UNL     1     -24.867 -14.299 -16.081  1.00  0.00    +0.021 A 
ATOM     11  C   UNL     1     -24.270 -13.062 -16.312  1.00  0.00    +0.002 A 
ATOM     12 Cl   UNL     1     -25.138 -16.706 -14.976  1.00  0.00    -0.084 Cl
ENDBRANCH   5   6
BRANCH   5  13
ATOM     13  N   UNL     1     -21.924 -15.091 -12.222  1.00  0.00    -0.282 NA
ATOM     14  C   UNL     1     -22.929 -14.155 -11.651  1.00  0.00    +0.091 C 
ATOM     15  C   UNL     1     -21.519 -16.089 -11.194  1.00  0.00    +0.122 C 
ATOM     16  C   UNL     1     -22.335 -13.274 -10.530  1.00  0.00    +0.062 C 
ATOM     17  C   UNL     1     -21.135 -15.408  -9.909  1.00  0.00    -0.020 A 
ATOM     18  C   UNL     1     -21.538 -14.125  -9.602  1.00  0.00    +0.010 A 
ATOM     19  C   UNL     1     -20.361 -15.966  -8.845  1.00  0.00    +0.017 A 
ATOM     20  S   UNL     1     -21.001 -13.595  -8.083  1.00  0.00    -0.149 S 
ATOM     21  C   UNL     1     -20.210 -15.086  -7.793  1.00  0.00    +0.065 A 
ENDBRANCH   5  13
ENDBRANCH   1   5
TORSDOF 4
ENDMDL
