MODEL 1
REMARK VINA RESULT:    -7.981      0.000      0.000
REMARK INTER + INTRA:         -10.479
REMARK INTER:                  -9.847
REMARK INTRA:                  -0.632
REMARK UNBOUND:                -0.632
REMARK SMILES CCCc1nc2c(c(=O)n(C)c(=O)n2C)n1Cc1ccco1
REMARK SMILES IDX 4 1 5 2 6 3 7 4 16 5 8 6 9 7 10 8 11 9 12 10 13 11 14 12
REMARK SMILES IDX 15 13 3 14 2 15 1 16 17 17 18 18 19 19 22 20 20 21 21 22
REMARK H PARENT
ROOT
ATOM      1  C   UNL     1     -22.185 -20.475 -14.489  1.00  0.00    +0.112 A 
ATOM      2  N   UNL     1     -23.202 -19.630 -14.511  1.00  0.00    -0.215 NA
ATOM      3  C   UNL     1     -22.658 -18.412 -14.256  1.00  0.00    +0.168 A 
ATOM      4  C   UNL     1     -21.309 -18.478 -14.097  1.00  0.00    +0.153 A 
ATOM      5  N   UNL     1     -20.998 -19.809 -14.221  1.00  0.00    -0.314 N 
ATOM      6  C   UNL     1     -20.507 -17.328 -13.850  1.00  0.00    +0.282 C 
ATOM      7  O   UNL     1     -19.280 -17.357 -13.811  1.00  0.00    -0.267 OA
ATOM      8  N   UNL     1     -21.261 -16.158 -13.700  1.00  0.00    -0.261 N 
ATOM      9  C   UNL     1     -20.544 -14.928 -13.432  1.00  0.00    +0.159 C 
ATOM     10  C   UNL     1     -22.649 -16.048 -13.909  1.00  0.00    +0.332 C 
ATOM     11  O   UNL     1     -23.216 -14.952 -13.863  1.00  0.00    -0.247 OA
ATOM     12  N   UNL     1     -23.347 -17.225 -14.179  1.00  0.00    -0.279 N 
ATOM     13  C   UNL     1     -24.783 -17.203 -14.388  1.00  0.00    +0.157 C 
ENDROOT
BRANCH   1  14
ATOM     14  C   UNL     1     -22.305 -21.946 -14.723  1.00  0.00    +0.075 C 
BRANCH  14  15
ATOM     15  C   UNL     1     -23.545 -22.278 -15.550  1.00  0.00    +0.005 C 
ATOM     16  C   UNL     1     -24.062 -23.674 -15.245  1.00  0.00    +0.004 C 
ENDBRANCH  14  15
ENDBRANCH   1  14
BRANCH   5  17
ATOM     17  C   UNL     1     -19.674 -20.402 -14.108  1.00  0.00    +0.199 C 
BRANCH  17  18
ATOM     18  C   UNL     1     -19.399 -20.835 -12.716  1.00  0.00    +0.123 A 
ATOM     19  C   UNL     1     -19.307 -22.071 -12.108  1.00  0.00    +0.047 A 
ATOM     20  O   UNL     1     -19.163 -19.852 -11.799  1.00  0.00    -0.467 OA
ATOM     21  C   UNL     1     -19.010 -21.827 -10.745  1.00  0.00    +0.042 A 
ATOM     22  C   UNL     1     -18.933 -20.461 -10.609  1.00  0.00    +0.195 A 
ENDBRANCH  17  18
ENDBRANCH   5  17
TORSDOF 4
ENDMDL
MODEL 2
REMARK VINA RESULT:    -7.565      2.423      3.295
REMARK INTER + INTRA:          -9.965
REMARK INTER:                  -9.120
REMARK INTRA:                  -0.846
REMARK UNBOUND:                -0.632
REMARK SMILES CCCc1nc2c(c(=O)n(C)c(=O)n2C)n1Cc1ccco1
REMARK SMILES IDX 4 1 5 2 6 3 7 4 16 5 8 6 9 7 10 8 11 9 12 10 13 11 14 12
REMARK SMILES IDX 15 13 3 14 2 15 1 16 17 17 18 18 19 19 22 20 20 21 21 22
REMARK H PARENT
ROOT
ATOM      1  C   UNL     1     -19.895 -18.565 -13.110  1.00  0.00    +0.112 A 
ATOM      2  N   UNL     1     -20.878 -18.305 -13.956  1.00  0.00    -0.215 NA
ATOM      3  C   UNL     1     -21.423 -17.140 -13.519  1.00  0.00    +0.168 A 
ATOM      4  C   UNL     1     -20.781 -16.654 -12.423  1.00  0.00    +0.153 A 
ATOM      5  N   UNL     1     -19.809 -17.580 -12.138  1.00  0.00    -0.314 N 
ATOM      6  C   UNL     1     -21.148 -15.429 -11.798  1.00  0.00    +0.282 C 
ATOM      7  O   UNL     1     -20.512 -14.925 -10.876  1.00  0.00    -0.267 OA
ATOM      8  N   UNL     1     -22.282 -14.842 -12.371  1.00  0.00    -0.261 N 
ATOM      9  C   UNL     1     -22.751 -13.595 -11.801  1.00  0.00    +0.159 C 
ATOM     10  C   UNL     1     -22.936 -15.291 -13.534  1.00  0.00    +0.332 C 
ATOM     11  O   UNL     1     -23.864 -14.647 -14.033  1.00  0.00    -0.247 OA
ATOM     12  N   UNL     1     -22.484 -16.485 -14.096  1.00  0.00    -0.279 N 
ATOM     13  C   UNL     1     -23.116 -17.029 -15.284  1.00  0.00    +0.157 C 
ENDROOT
BRANCH   1  14
ATOM     14  C   UNL     1     -19.001 -19.760 -13.196  1.00  0.00    +0.075 C 
BRANCH  14  15
ATOM     15  C   UNL     1     -19.808 -21.058 -13.190  1.00  0.00    +0.005 C 
ATOM     16  C   UNL     1     -19.318 -22.013 -12.113  1.00  0.00    +0.004 C 
ENDBRANCH  14  15
ENDBRANCH   1  14
BRANCH   5  17
ATOM     17  C   UNL     1     -18.861 -17.527 -11.035  1.00  0.00    +0.199 C 
BRANCH  17  18
ATOM     18  C   UNL     1     -19.323 -18.354  -9.892  1.00  0.00    +0.123 A 
ATOM     19  C   UNL     1     -18.895 -19.550  -9.354  1.00  0.00    +0.047 A 
ATOM     20  O   UNL     1     -20.381 -17.876  -9.173  1.00  0.00    -0.467 OA
ATOM     21  C   UNL     1     -19.745 -19.822  -8.254  1.00  0.00    +0.042 A 
ATOM     22  C   UNL     1     -20.631 -18.773  -8.187  1.00  0.00    +0.195 A 
ENDBRANCH  17  18
ENDBRANCH   5  17
TORSDOF 4
ENDMDL
MODEL 3
REMARK VINA RESULT:    -7.491      4.268      5.977
REMARK INTER + INTRA:          -9.875
REMARK INTER:                  -9.168
REMARK INTRA:                  -0.707
REMARK UNBOUND:                -0.632
REMARK SMILES CCCc1nc2c(c(=O)n(C)c(=O)n2C)n1Cc1ccco1
REMARK SMILES IDX 4 1 5 2 6 3 7 4 16 5 8 6 9 7 10 8 11 9 12 10 13 11 14 12
REMARK SMILES IDX 15 13 3 14 2 15 1 16 17 17 18 18 19 19 22 20 20 21 21 22
REMARK H PARENT
ROOT
ATOM      1  C   UNL     1     -19.508 -16.961 -10.227  1.00  0.00    +0.112 A 
ATOM      2  N   UNL     1     -19.480 -17.046 -11.546  1.00  0.00    -0.215 NA
ATOM      3  C   UNL     1     -20.221 -15.997 -11.986  1.00  0.00    +0.168 A 
ATOM      4  C   UNL     1     -20.696 -15.240 -10.960  1.00  0.00    +0.153 A 
ATOM      5  N   UNL     1     -20.261 -15.869  -9.821  1.00  0.00    -0.314 N 
ATOM      6  C   UNL     1     -21.475 -14.066 -11.166  1.00  0.00    +0.282 C 
ATOM      7  O   UNL     1     -21.819 -13.316 -10.257  1.00  0.00    -0.267 OA
ATOM      8  N   UNL     1     -21.770 -13.838 -12.515  1.00  0.00    -0.261 N 
ATOM      9  C   UNL     1     -22.571 -12.674 -12.838  1.00  0.00    +0.159 C 
ATOM     10  C   UNL     1     -21.253 -14.570 -13.602  1.00  0.00    +0.332 C 
ATOM     11  O   UNL     1     -21.480 -14.229 -14.766  1.00  0.00    -0.247 OA
ATOM     12  N   UNL     1     -20.472 -15.685 -13.301  1.00  0.00    -0.279 N 
ATOM     13  C   UNL     1     -19.916 -16.507 -14.361  1.00  0.00    +0.157 C 
ENDROOT
BRANCH   1  14
ATOM     14  C   UNL     1     -18.820 -17.915  -9.304  1.00  0.00    +0.075 C 
BRANCH  14  15
ATOM     15  C   UNL     1     -19.771 -19.014  -8.833  1.00  0.00    +0.005 C 
ATOM     16  C   UNL     1     -19.015 -20.167  -8.192  1.00  0.00    +0.004 C 
ENDBRANCH  14  15
ENDBRANCH   1  14
BRANCH   5  17
ATOM     17  C   UNL     1     -20.527 -15.457  -8.450  1.00  0.00    +0.199 C 
BRANCH  17  18
ATOM     18  C   UNL     1     -21.784 -16.063  -7.945  1.00  0.00    +0.123 A 
ATOM     19  C   UNL     1     -23.067 -16.142  -8.446  1.00  0.00    +0.047 A 
ATOM     20  O   UNL     1     -21.718 -16.707  -6.743  1.00  0.00    -0.467 OA
ATOM     21  C   UNL     1     -23.827 -16.861  -7.493  1.00  0.00    +0.042 A 
ATOM     22  C   UNL     1     -22.960 -17.183  -6.476  1.00  0.00    +0.195 A 
ENDBRANCH  17  18
ENDBRANCH   5  17
TORSDOF 4
ENDMDL
MODEL 4
REMARK VINA RESULT:    -7.470      1.533      2.088
REMARK INTER + INTRA:          -9.849
REMARK INTER:                  -9.208
REMARK INTRA:                  -0.641
REMARK UNBOUND:                -0.632
REMARK SMILES CCCc1nc2c(c(=O)n(C)c(=O)n2C)n1Cc1ccco1
REMARK SMILES IDX 4 1 5 2 6 3 7 4 16 5 8 6 9 7 10 8 11 9 12 10 13 11 14 12
REMARK SMILES IDX 15 13 3 14 2 15 1 16 17 17 18 18 19 19 22 20 20 21 21 22
REMARK H PARENT
ROOT
ATOM      1  C   UNL     1     -21.395 -18.753 -14.115  1.00  0.00    +0.112 A 
ATOM      2  N   UNL     1     -22.348 -17.880 -14.399  1.00  0.00    -0.215 NA
ATOM      3  C   UNL     1     -21.814 -16.665 -14.108  1.00  0.00    +0.168 A 
ATOM      4  C   UNL     1     -20.531 -16.762 -13.668  1.00  0.00    +0.153 A 
ATOM      5  N   UNL     1     -20.261 -18.107 -13.645  1.00  0.00    -0.314 N 
ATOM      6  C   UNL     1     -19.747 -15.624 -13.328  1.00  0.00    +0.282 C 
ATOM      7  O   UNL     1     -18.557 -15.688 -13.031  1.00  0.00    -0.267 OA
ATOM      8  N   UNL     1     -20.463 -14.424 -13.408  1.00  0.00    -0.261 N 
ATOM      9  C   UNL     1     -19.763 -13.201 -13.070  1.00  0.00    +0.159 C 
ATOM     10  C   UNL     1     -21.772 -14.284 -13.909  1.00  0.00    +0.332 C 
ATOM     11  O   UNL     1     -22.287 -13.171 -14.046  1.00  0.00    -0.247 OA
ATOM     12  N   UNL     1     -22.450 -15.455 -14.247  1.00  0.00    -0.279 N 
ATOM     13  C   UNL     1     -23.810 -15.402 -14.753  1.00  0.00    +0.157 C 
ENDROOT
BRANCH   1  14
ATOM     14  C   UNL     1     -21.529 -20.232 -14.281  1.00  0.00    +0.075 C 
BRANCH  14  15
ATOM     15  C   UNL     1     -22.910 -20.608 -14.818  1.00  0.00    +0.005 C 
ATOM     16  C   UNL     1     -23.111 -22.114 -14.831  1.00  0.00    +0.004 C 
ENDBRANCH  14  15
ENDBRANCH   1  14
BRANCH   5  17
ATOM     17  C   UNL     1     -19.016 -18.733 -13.224  1.00  0.00    +0.199 C 
BRANCH  17  18
ATOM     18  C   UNL     1     -19.032 -19.028 -11.770  1.00  0.00    +0.123 A 
ATOM     19  C   UNL     1     -19.090 -18.235 -10.641  1.00  0.00    +0.047 A 
ATOM     20  O   UNL     1     -19.000 -20.344 -11.407  1.00  0.00    -0.467 OA
ATOM     21  C   UNL     1     -19.081 -19.114  -9.532  1.00  0.00    +0.042 A 
ATOM     22  C   UNL     1     -19.027 -20.386 -10.051  1.00  0.00    +0.195 A 
ENDBRANCH  17  18
ENDBRANCH   5  17
TORSDOF 4
ENDMDL
MODEL 5
REMARK VINA RESULT:    -7.397      2.669      4.541
REMARK INTER + INTRA:          -9.759
REMARK INTER:                  -9.152
REMARK INTRA:                  -0.607
REMARK UNBOUND:                -0.632
REMARK SMILES CCCc1nc2c(c(=O)n(C)c(=O)n2C)n1Cc1ccco1
REMARK SMILES IDX 4 1 5 2 6 3 7 4 16 5 8 6 9 7 10 8 11 9 12 10 13 11 14 12
REMARK SMILES IDX 15 13 3 14 2 15 1 16 17 17 18 18 19 19 22 20 20 21 21 22
REMARK H PARENT
ROOT
ATOM      1  C   UNL     1     -19.684 -17.655 -10.809  1.00  0.00    +0.112 A 
ATOM      2  N   UNL     1     -20.374 -16.715 -10.188  1.00  0.00    -0.215 NA
ATOM      3  C   UNL     1     -20.759 -15.852 -11.164  1.00  0.00    +0.168 A 
ATOM      4  C   UNL     1     -20.337 -16.251 -12.394  1.00  0.00    +0.153 A 
ATOM      5  N   UNL     1     -19.621 -17.400 -12.172  1.00  0.00    -0.314 N 
ATOM      6  C   UNL     1     -20.641 -15.528 -13.582  1.00  0.00    +0.282 C 
ATOM      7  O   UNL     1     -20.359 -15.931 -14.708  1.00  0.00    -0.267 OA
ATOM      8  N   UNL     1     -21.328 -14.334 -13.334  1.00  0.00    -0.261 N 
ATOM      9  C   UNL     1     -21.676 -13.512 -14.475  1.00  0.00    +0.159 C 
ATOM     10  C   UNL     1     -21.823 -13.920 -12.082  1.00  0.00    +0.332 C 
ATOM     11  O   UNL     1     -22.516 -12.904 -11.975  1.00  0.00    -0.247 OA
ATOM     12  N   UNL     1     -21.502 -14.711 -10.980  1.00  0.00    -0.279 N 
ATOM     13  C   UNL     1     -21.955 -14.346  -9.650  1.00  0.00    +0.157 C 
ENDROOT
BRANCH   1  14
ATOM     14  C   UNL     1     -19.057 -18.831 -10.132  1.00  0.00    +0.075 C 
BRANCH  14  15
ATOM     15  C   UNL     1     -19.698 -19.091  -8.769  1.00  0.00    +0.005 C 
ATOM     16  C   UNL     1     -19.027 -20.252  -8.051  1.00  0.00    +0.004 C 
ENDBRANCH  14  15
ENDBRANCH   1  14
BRANCH   5  17
ATOM     17  C   UNL     1     -18.943 -18.204 -13.177  1.00  0.00    +0.199 C 
BRANCH  17  18
ATOM     18  C   UNL     1     -19.778 -19.359 -13.592  1.00  0.00    +0.123 A 
ATOM     19  C   UNL     1     -19.584 -20.725 -13.573  1.00  0.00    +0.047 A 
ATOM     20  O   UNL     1     -21.017 -19.076 -14.090  1.00  0.00    -0.467 OA
ATOM     21  C   UNL     1     -20.763 -21.305 -14.099  1.00  0.00    +0.042 A 
ATOM     22  C   UNL     1     -21.604 -20.259 -14.398  1.00  0.00    +0.195 A 
ENDBRANCH  17  18
ENDBRANCH   5  17
TORSDOF 4
ENDMDL
MODEL 6
REMARK VINA RESULT:    -7.335      2.819      6.383
REMARK INTER + INTRA:          -9.682
REMARK INTER:                  -9.095
REMARK INTRA:                  -0.587
REMARK UNBOUND:                -0.632
REMARK SMILES CCCc1nc2c(c(=O)n(C)c(=O)n2C)n1Cc1ccco1
REMARK SMILES IDX 4 1 5 2 6 3 7 4 16 5 8 6 9 7 10 8 11 9 12 10 13 11 14 12
REMARK SMILES IDX 15 13 3 14 2 15 1 16 17 17 18 18 19 19 22 20 20 21 21 22
REMARK H PARENT
ROOT
ATOM      1  C   UNL     1     -23.430 -14.578 -14.718  1.00  0.00    +0.112 A 
ATOM      2  N   UNL     1     -23.616 -15.853 -15.015  1.00  0.00    -0.215 NA
ATOM      3  C   UNL     1     -22.533 -16.497 -14.509  1.00  0.00    +0.168 A 
ATOM      4  C   UNL     1     -21.680 -15.646 -13.878  1.00  0.00    +0.153 A 
ATOM      5  N   UNL     1     -22.239 -14.402 -14.030  1.00  0.00    -0.314 N 
ATOM      6  C   UNL     1     -20.486 -16.087 -13.240  1.00  0.00    +0.282 C 
ATOM      7  O   UNL     1     -19.763 -15.349 -12.577  1.00  0.00    -0.267 OA
ATOM      8  N   UNL     1     -20.248 -17.456 -13.413  1.00  0.00    -0.261 N 
ATOM      9  C   UNL     1     -19.050 -18.009 -12.815  1.00  0.00    +0.159 C 
ATOM     10  C   UNL     1     -21.134 -18.371 -14.015  1.00  0.00    +0.332 C 
ATOM     11  O   UNL     1     -20.891 -19.581 -14.026  1.00  0.00    -0.247 OA
ATOM     12  N   UNL     1     -22.295 -17.849 -14.584  1.00  0.00    -0.279 N 
ATOM     13  C   UNL     1     -23.253 -18.720 -15.241  1.00  0.00    +0.157 C 
ENDROOT
BRANCH   1  14
ATOM     14  C   UNL     1     -24.379 -13.480 -15.078  1.00  0.00    +0.075 C 
BRANCH  14  15
ATOM     15  C   UNL     1     -23.981 -12.813 -16.394  1.00  0.00    +0.005 C 
ATOM     16  C   UNL     1     -24.164 -13.755 -17.573  1.00  0.00    +0.004 C 
ENDBRANCH  14  15
ENDBRANCH   1  14
BRANCH   5  17
ATOM     17  C   UNL     1     -21.691 -13.144 -13.546  1.00  0.00    +0.199 C 
BRANCH  17  18
ATOM     18  C   UNL     1     -22.164 -12.849 -12.171  1.00  0.00    +0.123 A 
ATOM     19  C   UNL     1     -23.406 -12.575 -11.633  1.00  0.00    +0.047 A 
ATOM     20  O   UNL     1     -21.223 -12.851 -11.182  1.00  0.00    -0.467 OA
ATOM     21  C   UNL     1     -23.208 -12.388 -10.243  1.00  0.00    +0.042 A 
ATOM     22  C   UNL     1     -21.864 -12.567 -10.020  1.00  0.00    +0.195 A 
ENDBRANCH  17  18
ENDBRANCH   5  17
TORSDOF 4
ENDMDL
MODEL 7
REMARK VINA RESULT:    -7.277      4.297      7.491
REMARK INTER + INTRA:          -9.611
REMARK INTER:                  -8.695
REMARK INTRA:                  -0.916
REMARK UNBOUND:                -0.632
REMARK SMILES CCCc1nc2c(c(=O)n(C)c(=O)n2C)n1Cc1ccco1
REMARK SMILES IDX 4 1 5 2 6 3 7 4 16 5 8 6 9 7 10 8 11 9 12 10 13 11 14 12
REMARK SMILES IDX 15 13 3 14 2 15 1 16 17 17 18 18 19 19 22 20 20 21 21 22
REMARK H PARENT
ROOT
ATOM      1  C   UNL     1     -21.829 -13.696 -10.143  1.00  0.00    +0.112 A 
ATOM      2  N   UNL     1     -22.045 -14.463  -9.087  1.00  0.00    -0.215 NA
ATOM      3  C   UNL     1     -21.338 -15.598  -9.323  1.00  0.00    +0.168 A 
ATOM      4  C   UNL     1     -20.662 -15.545 -10.502  1.00  0.00    +0.153 A 
ATOM      5  N   UNL     1     -20.993 -14.331 -11.050  1.00  0.00    -0.314 N 
ATOM      6  C   UNL     1     -19.825 -16.603 -10.957  1.00  0.00    +0.282 C 
ATOM      7  O   UNL     1     -19.128 -16.526 -11.964  1.00  0.00    -0.267 OA
ATOM      8  N   UNL     1     -19.851 -17.720 -10.113  1.00  0.00    -0.261 N 
ATOM      9  C   UNL     1     -19.043 -18.863 -10.490  1.00  0.00    +0.159 C 
ATOM     10  C   UNL     1     -20.496 -17.787  -8.864  1.00  0.00    +0.332 C 
ATOM     11  O   UNL     1     -20.374 -18.776  -8.135  1.00  0.00    -0.247 OA
ATOM     12  N   UNL     1     -21.267 -16.688  -8.488  1.00  0.00    -0.279 N 
ATOM     13  C   UNL     1     -21.982 -16.682  -7.224  1.00  0.00    +0.157 C 
ENDROOT
BRANCH   1  14
ATOM     14  C   UNL     1     -22.409 -12.331 -10.328  1.00  0.00    +0.075 C 
BRANCH  14  15
ATOM     15  C   UNL     1     -23.908 -12.400 -10.617  1.00  0.00    +0.005 C 
ATOM     16  C   UNL     1     -24.220 -11.970 -12.042  1.00  0.00    +0.004 C 
ENDBRANCH  14  15
ENDBRANCH   1  14
BRANCH   5  17
ATOM     17  C   UNL     1     -20.540 -13.808 -12.329  1.00  0.00    +0.199 C 
BRANCH  17  18
ATOM     18  C   UNL     1     -21.571 -13.995 -13.380  1.00  0.00    +0.123 A 
ATOM     19  C   UNL     1     -22.574 -14.925 -13.568  1.00  0.00    +0.047 A 
ATOM     20  O   UNL     1     -21.595 -13.080 -14.392  1.00  0.00    -0.467 OA
ATOM     21  C   UNL     1     -23.237 -14.562 -14.766  1.00  0.00    +0.042 A 
ATOM     22  C   UNL     1     -22.604 -13.433 -15.228  1.00  0.00    +0.195 A 
ENDBRANCH  17  18
ENDBRANCH   5  17
TORSDOF 4
ENDMDL
MODEL 8
REMARK VINA RESULT:    -7.202      2.883      5.074
REMARK INTER + INTRA:          -9.517
REMARK INTER:                  -8.786
REMARK INTRA:                  -0.731
REMARK UNBOUND:                -0.632
REMARK SMILES CCCc1nc2c(c(=O)n(C)c(=O)n2C)n1Cc1ccco1
REMARK SMILES IDX 4 1 5 2 6 3 7 4 16 5 8 6 9 7 10 8 11 9 12 10 13 11 14 12
REMARK SMILES IDX 15 13 3 14 2 15 1 16 17 17 18 18 19 19 22 20 20 21 21 22
REMARK H PARENT
ROOT
ATOM      1  C   UNL     1     -19.839 -17.853 -12.507  1.00  0.00    +0.112 A 
ATOM      2  N   UNL     1     -19.483 -17.603 -11.258  1.00  0.00    -0.215 NA
ATOM      3  C   UNL     1     -20.296 -16.593 -10.853  1.00  0.00    +0.168 A 
ATOM      4  C   UNL     1     -21.173 -16.221 -11.823  1.00  0.00    +0.153 A 
ATOM      5  N   UNL     1     -20.869 -17.011 -12.903  1.00  0.00    -0.314 N 
ATOM      6  C   UNL     1     -22.149 -15.203 -11.628  1.00  0.00    +0.282 C 
ATOM      7  O   UNL     1     -23.014 -14.930 -12.455  1.00  0.00    -0.267 OA
ATOM      8  N   UNL     1     -22.043 -14.576 -10.381  1.00  0.00    -0.261 N 
ATOM      9  C   UNL     1     -22.981 -13.513 -10.082  1.00  0.00    +0.159 C 
ATOM     10  C   UNL     1     -21.182 -14.971  -9.338  1.00  0.00    +0.332 C 
ATOM     11  O   UNL     1     -21.234 -14.430  -8.229  1.00  0.00    -0.247 OA
ATOM     12  N   UNL     1     -20.283 -16.001  -9.612  1.00  0.00    -0.279 N 
ATOM     13  C   UNL     1     -19.349 -16.457  -8.599  1.00  0.00    +0.157 C 
ENDROOT
BRANCH   1  14
ATOM     14  C   UNL     1     -19.214 -18.900 -13.370  1.00  0.00    +0.075 C 
BRANCH  14  15
ATOM     15  C   UNL     1     -19.366 -20.290 -12.754  1.00  0.00    +0.005 C 
ATOM     16  C   UNL     1     -19.832 -21.307 -13.783  1.00  0.00    +0.004 C 
ENDBRANCH  14  15
ENDBRANCH   1  14
BRANCH   5  17
ATOM     17  C   UNL     1     -21.516 -16.981 -14.206  1.00  0.00    +0.199 C 
BRANCH  17  18
ATOM     18  C   UNL     1     -22.617 -17.973 -14.279  1.00  0.00    +0.123 A 
ATOM     19  C   UNL     1     -22.770 -19.174 -14.943  1.00  0.00    +0.047 A 
ATOM     20  O   UNL     1     -23.736 -17.707 -13.544  1.00  0.00    -0.467 OA
ATOM     21  C   UNL     1     -24.056 -19.659 -14.603  1.00  0.00    +0.042 A 
ATOM     22  C   UNL     1     -24.603 -18.731 -13.749  1.00  0.00    +0.195 A 
ENDBRANCH  17  18
ENDBRANCH   5  17
TORSDOF 4
ENDMDL
MODEL 9
REMARK VINA RESULT:    -7.088      3.564      7.389
REMARK INTER + INTRA:          -9.378
REMARK INTER:                  -8.538
REMARK INTRA:                  -0.840
REMARK UNBOUND:                -0.632
REMARK SMILES CCCc1nc2c(c(=O)n(C)c(=O)n2C)n1Cc1ccco1
REMARK SMILES IDX 4 1 5 2 6 3 7 4 16 5 8 6 9 7 10 8 11 9 12 10 13 11 14 12
REMARK SMILES IDX 15 13 3 14 2 15 1 16 17 17 18 18 19 19 22 20 20 21 21 22
REMARK H PARENT
ROOT
ATOM      1  C   UNL     1     -21.328 -13.423 -11.538  1.00  0.00    +0.112 A 
ATOM      2  N   UNL     1     -21.115 -14.241 -10.521  1.00  0.00    -0.215 NA
ATOM      3  C   UNL     1     -20.588 -15.364 -11.074  1.00  0.00    +0.168 A 
ATOM      4  C   UNL     1     -20.446 -15.253 -12.422  1.00  0.00    +0.153 A 
ATOM      5  N   UNL     1     -20.944 -14.013 -12.733  1.00  0.00    -0.314 N 
ATOM      6  C   UNL     1     -19.887 -16.288 -13.224  1.00  0.00    +0.282 C 
ATOM      7  O   UNL     1     -19.655 -16.162 -14.423  1.00  0.00    -0.267 OA
ATOM      8  N   UNL     1     -19.593 -17.446 -12.494  1.00  0.00    -0.261 N 
ATOM      9  C   UNL     1     -19.031 -18.569 -13.216  1.00  0.00    +0.159 C 
ATOM     10  C   UNL     1     -19.679 -17.574 -11.094  1.00  0.00    +0.332 C 
ATOM     11  O   UNL     1     -19.293 -18.599 -10.523  1.00  0.00    -0.247 OA
ATOM     12  N   UNL     1     -20.209 -16.494 -10.389  1.00  0.00    -0.279 N 
ATOM     13  C   UNL     1     -20.351 -16.551  -8.946  1.00  0.00    +0.157 C 
ENDROOT
BRANCH   1  14
ATOM     14  C   UNL     1     -21.904 -12.050 -11.411  1.00  0.00    +0.075 C 
BRANCH  14  15
ATOM     15  C   UNL     1     -23.283 -12.086 -10.754  1.00  0.00    +0.005 C 
ATOM     16  C   UNL     1     -24.394 -11.970 -11.785  1.00  0.00    +0.004 C 
ENDBRANCH  14  15
ENDBRANCH   1  14
BRANCH   5  17
ATOM     17  C   UNL     1     -21.036 -13.427 -14.062  1.00  0.00    +0.199 C 
BRANCH  17  18
ATOM     18  C   UNL     1     -22.391 -13.615 -14.637  1.00  0.00    +0.123 A 
ATOM     19  C   UNL     1     -23.315 -12.751 -15.189  1.00  0.00    +0.047 A 
ATOM     20  O   UNL     1     -22.875 -14.891 -14.671  1.00  0.00    -0.467 OA
ATOM     21  C   UNL     1     -24.427 -13.541 -15.568  1.00  0.00    +0.042 A 
ATOM     22  C   UNL     1     -24.109 -14.836 -15.233  1.00  0.00    +0.195 A 
ENDBRANCH  17  18
ENDBRANCH   5  17
TORSDOF 4
ENDMDL
