MODEL 1
REMARK VINA RESULT:    -9.682      0.000      0.000
REMARK INTER + INTRA:         -18.466
REMARK INTER:                 -15.909
REMARK INTRA:                  -2.557
REMARK UNBOUND:                -2.557
REMARK SMILES CS(=O)(=O)CCNCc1ccc(-c2ccc3ncnc(Nc4ccc(OCc5cccc(F)c5)c(Cl)c4)c3c2)o1
REMARK SMILES IDX 13 1 14 2 15 3 16 4 17 5 18 6 19 7 20 8 38 9 39 10 12 11
REMARK SMILES IDX 9 12 10 13 40 14 11 15 8 16 7 17 6 19 5 20 2 21 3 22 4 23
REMARK SMILES IDX 1 24 21 25 22 27 37 28 23 29 35 30 24 31 25 32 36 33 26 34
REMARK SMILES IDX 27 35 28 36 34 37 29 38 32 39 30 40 31 41 33 42
REMARK H PARENT 7 18 21 26
ROOT
ATOM      1  C   UNL     1      20.077   7.676  63.989  1.00  0.00    +0.018 A 
ATOM      2  C   UNL     1      19.354   6.579  64.460  1.00  0.00    +0.014 A 
ATOM      3  C   UNL     1      18.245   6.757  65.296  1.00  0.00    +0.030 A 
ATOM      4  C   UNL     1      17.813   8.017  65.684  1.00  0.00    +0.076 A 
ATOM      5  N   UNL     1      16.756   8.109  66.494  1.00  0.00    -0.236 NA
ATOM      6  C   UNL     1      16.379   9.340  66.850  1.00  0.00    +0.224 A 
ATOM      7  N   UNL     1      16.950  10.483  66.462  1.00  0.00    -0.219 NA
ATOM      8  C   UNL     1      18.006  10.383  65.634  1.00  0.00    +0.141 A 
ATOM      9  C   UNL     1      18.508   9.136  65.210  1.00  0.00    +0.044 A 
ATOM     10  C   UNL     1      19.644   8.952  64.372  1.00  0.00    +0.026 A 
ENDROOT
BRANCH   1  11
ATOM     11  C   UNL     1      21.247   7.508  63.131  1.00  0.00    +0.134 A 
ATOM     12  C   UNL     1      22.388   7.900  61.284  1.00  0.00    +0.118 A 
ATOM     13  C   UNL     1      23.167   7.059  62.050  1.00  0.00    +0.047 A 
ATOM     14  O   UNL     1      21.220   8.168  61.933  1.00  0.00    -0.460 OA
ATOM     15  C   UNL     1      22.436   6.809  63.236  1.00  0.00    +0.051 A 
BRANCH  12  16
ATOM     16  C   UNL     1      22.565   8.527  59.946  1.00  0.00    +0.157 C 
BRANCH  16  17
ATOM     17  N   UNL     1      21.264   8.796  59.327  1.00  0.00    -0.309 NA
ATOM     18  H   UNL     1      21.356   9.626  58.740  1.00  0.00    +0.123 HD
BRANCH  17  19
ATOM     19  C   UNL     1      20.783   7.676  58.509  1.00  0.00    +0.097 C 
BRANCH  19  20
ATOM     20  C   UNL     1      19.383   7.231  58.907  1.00  0.00    +0.152 C 
BRANCH  20  21
ATOM     21  S   UNL     1      18.285   8.618  59.147  1.00  0.00    +0.148 S 
ATOM     22  O   UNL     1      18.597   9.637  58.165  1.00  0.00    -0.229 OA
ATOM     23  O   UNL     1      18.279   8.933  60.563  1.00  0.00    -0.229 OA
ATOM     24  C   UNL     1      16.679   7.962  58.755  1.00  0.00    +0.158 C 
ENDBRANCH  20  21
ENDBRANCH  19  20
ENDBRANCH  17  19
ENDBRANCH  16  17
ENDBRANCH  12  16
ENDBRANCH   1  11
BRANCH   8  25
ATOM     25  N   UNL     1      18.623  11.572  65.150  1.00  0.00    -0.340 N 
ATOM     26  H   UNL     1      19.575  11.602  65.502  1.00  0.00    +0.168 HD
BRANCH  25  27
ATOM     27  C   UNL     1      18.530  12.132  63.855  1.00  0.00    +0.041 A 
ATOM     28  C   UNL     1      19.430  11.811  62.829  1.00  0.00    +0.050 A 
ATOM     29  C   UNL     1      17.423  12.936  63.540  1.00  0.00    +0.030 A 
ATOM     30  C   UNL     1      19.270  12.336  61.544  1.00  0.00    +0.085 A 
ATOM     31  C   UNL     1      17.257  13.465  62.257  1.00  0.00    +0.050 A 
ATOM     32  C   UNL     1      18.196  13.185  61.267  1.00  0.00    +0.138 A 
ATOM     33 Cl   UNL     1      20.410  11.900  60.322  1.00  0.00    -0.080 Cl
BRANCH  32  34
ATOM     34  O   UNL     1      17.979  13.705  60.018  1.00  0.00    -0.487 OA
BRANCH  34  35
ATOM     35  C   UNL     1      17.097  12.871  59.253  1.00  0.00    +0.265 C 
BRANCH  35  36
ATOM     36  C   UNL     1      15.662  13.230  59.552  1.00  0.00    -0.008 A 
ATOM     37  C   UNL     1      15.253  14.569  59.589  1.00  0.00    +0.046 A 
ATOM     38  C   UNL     1      14.719  12.223  59.816  1.00  0.00    +0.007 A 
ATOM     39  C   UNL     1      13.929  14.882  59.880  1.00  0.00    +0.123 A 
ATOM     40  C   UNL     1      13.391  12.549  60.106  1.00  0.00    +0.003 A 
ATOM     41  C   UNL     1      12.994  13.884  60.136  1.00  0.00    +0.039 A 
ATOM     42  F   UNL     1      13.548  16.165  59.915  1.00  0.00    -0.207 F 
ENDBRANCH  35  36
ENDBRANCH  34  35
ENDBRANCH  32  34
ENDBRANCH  25  27
ENDBRANCH   8  25
TORSDOF 11
ENDMDL
MODEL 2
REMARK VINA RESULT:    -9.607      1.782      2.122
REMARK INTER + INTRA:         -18.342
REMARK INTER:                 -15.792
REMARK INTRA:                  -2.550
REMARK UNBOUND:                -2.557
REMARK SMILES CS(=O)(=O)CCNCc1ccc(-c2ccc3ncnc(Nc4ccc(OCc5cccc(F)c5)c(Cl)c4)c3c2)o1
REMARK SMILES IDX 13 1 14 2 15 3 16 4 17 5 18 6 19 7 20 8 38 9 39 10 12 11
REMARK SMILES IDX 9 12 10 13 40 14 11 15 8 16 7 17 6 19 5 20 2 21 3 22 4 23
REMARK SMILES IDX 1 24 21 25 22 27 37 28 23 29 35 30 24 31 25 32 36 33 26 34
REMARK SMILES IDX 27 35 28 36 34 37 29 38 32 39 30 40 31 41 33 42
REMARK H PARENT 7 18 21 26
ROOT
ATOM      1  C   UNL     1      19.593   7.482  64.076  1.00  0.00    +0.018 A 
ATOM      2  C   UNL     1      19.010   6.543  64.930  1.00  0.00    +0.014 A 
ATOM      3  C   UNL     1      18.036   6.927  65.859  1.00  0.00    +0.030 A 
ATOM      4  C   UNL     1      17.602   8.240  65.968  1.00  0.00    +0.076 A 
ATOM      5  N   UNL     1      16.679   8.534  66.886  1.00  0.00    -0.236 NA
ATOM      6  C   UNL     1      16.296   9.812  66.964  1.00  0.00    +0.224 A 
ATOM      7  N   UNL     1      16.739  10.816  66.202  1.00  0.00    -0.219 NA
ATOM      8  C   UNL     1      17.658  10.509  65.270  1.00  0.00    +0.141 A 
ATOM      9  C   UNL     1      18.155   9.199  65.111  1.00  0.00    +0.044 A 
ATOM     10  C   UNL     1      19.156   8.809  64.177  1.00  0.00    +0.026 A 
ENDROOT
BRANCH   1  11
ATOM     11  C   UNL     1      20.624   7.103  63.114  1.00  0.00    +0.134 A 
ATOM     12  C   UNL     1      21.281   6.239  61.194  1.00  0.00    +0.118 A 
ATOM     13  C   UNL     1      22.425   6.644  61.848  1.00  0.00    +0.047 A 
ATOM     14  O   UNL     1      20.188   6.508  61.962  1.00  0.00    -0.460 OA
ATOM     15  C   UNL     1      22.003   7.201  63.080  1.00  0.00    +0.051 A 
BRANCH  12  16
ATOM     16  C   UNL     1      21.028   5.583  59.882  1.00  0.00    +0.157 C 
BRANCH  16  17
ATOM     17  N   UNL     1      19.707   5.955  59.366  1.00  0.00    -0.309 NA
ATOM     18  H   UNL     1      19.140   6.284  60.147  1.00  0.00    +0.123 HD
BRANCH  17  19
ATOM     19  C   UNL     1      19.775   7.002  58.340  1.00  0.00    +0.097 C 
BRANCH  19  20
ATOM     20  C   UNL     1      19.266   8.343  58.850  1.00  0.00    +0.152 C 
BRANCH  20  21
ATOM     21  S   UNL     1      20.589   9.524  59.057  1.00  0.00    +0.148 S 
ATOM     22  O   UNL     1      20.251  10.736  58.337  1.00  0.00    -0.229 OA
ATOM     23  O   UNL     1      21.838   8.834  58.795  1.00  0.00    -0.229 OA
ATOM     24  C   UNL     1      20.558   9.899  60.795  1.00  0.00    +0.158 C 
ENDBRANCH  20  21
ENDBRANCH  19  20
ENDBRANCH  17  19
ENDBRANCH  16  17
ENDBRANCH  12  16
ENDBRANCH   1  11
BRANCH   8  25
ATOM     25  N   UNL     1      18.129  11.531  64.397  1.00  0.00    -0.340 N 
ATOM     26  H   UNL     1      19.082  11.760  64.661  1.00  0.00    +0.168 HD
BRANCH  25  27
ATOM     27  C   UNL     1      17.938  11.636  63.000  1.00  0.00    +0.041 A 
ATOM     28  C   UNL     1      17.097  10.770  62.287  1.00  0.00    +0.050 A 
ATOM     29  C   UNL     1      18.502  12.726  62.317  1.00  0.00    +0.030 A 
ATOM     30  C   UNL     1      16.883  10.943  60.917  1.00  0.00    +0.085 A 
ATOM     31  C   UNL     1      18.292  12.905  60.947  1.00  0.00    +0.050 A 
ATOM     32  C   UNL     1      17.504  11.997  60.243  1.00  0.00    +0.138 A 
ATOM     33 Cl   UNL     1      15.833   9.845  60.097  1.00  0.00    -0.080 Cl
BRANCH  32  34
ATOM     34  O   UNL     1      17.306  12.227  58.907  1.00  0.00    -0.487 OA
BRANCH  34  35
ATOM     35  C   UNL     1      16.866  13.572  58.669  1.00  0.00    +0.265 C 
BRANCH  35  36
ATOM     36  C   UNL     1      15.535  13.803  59.345  1.00  0.00    -0.008 A 
ATOM     37  C   UNL     1      14.444  12.966  59.080  1.00  0.00    +0.046 A 
ATOM     38  C   UNL     1      15.369  14.876  60.236  1.00  0.00    +0.007 A 
ATOM     39  C   UNL     1      13.222  13.203  59.701  1.00  0.00    +0.123 A 
ATOM     40  C   UNL     1      14.137  15.103  60.855  1.00  0.00    +0.003 A 
ATOM     41  C   UNL     1      13.060  14.262  60.588  1.00  0.00    +0.039 A 
ATOM     42  F   UNL     1      12.184  12.398  59.440  1.00  0.00    -0.207 F 
ENDBRANCH  35  36
ENDBRANCH  34  35
ENDBRANCH  32  34
ENDBRANCH  25  27
ENDBRANCH   8  25
TORSDOF 11
ENDMDL
MODEL 3
REMARK VINA RESULT:    -9.525      3.232      6.399
REMARK INTER + INTRA:         -18.207
REMARK INTER:                 -15.429
REMARK INTRA:                  -2.778
REMARK UNBOUND:                -2.557
REMARK SMILES CS(=O)(=O)CCNCc1ccc(-c2ccc3ncnc(Nc4ccc(OCc5cccc(F)c5)c(Cl)c4)c3c2)o1
REMARK SMILES IDX 13 1 14 2 15 3 16 4 17 5 18 6 19 7 20 8 38 9 39 10 12 11
REMARK SMILES IDX 9 12 10 13 40 14 11 15 8 16 7 17 6 19 5 20 2 21 3 22 4 23
REMARK SMILES IDX 1 24 21 25 22 27 37 28 23 29 35 30 24 31 25 32 36 33 26 34
REMARK SMILES IDX 27 35 28 36 34 37 29 38 32 39 30 40 31 41 33 42
REMARK H PARENT 7 18 21 26
ROOT
ATOM      1  C   UNL     1      18.528  12.825  60.449  1.00  0.00    +0.018 A 
ATOM      2  C   UNL     1      18.014  13.087  59.178  1.00  0.00    +0.014 A 
ATOM      3  C   UNL     1      16.717  13.592  59.019  1.00  0.00    +0.030 A 
ATOM      4  C   UNL     1      15.897  13.860  60.105  1.00  0.00    +0.076 A 
ATOM      5  N   UNL     1      14.667  14.327  59.877  1.00  0.00    -0.236 NA
ATOM      6  C   UNL     1      13.906  14.564  60.949  1.00  0.00    +0.224 A 
ATOM      7  N   UNL     1      14.265  14.389  62.224  1.00  0.00    -0.219 NA
ATOM      8  C   UNL     1      15.510  13.931  62.447  1.00  0.00    +0.141 A 
ATOM      9  C   UNL     1      16.394  13.624  61.392  1.00  0.00    +0.044 A 
ATOM     10  C   UNL     1      17.707  13.098  61.550  1.00  0.00    +0.026 A 
ENDROOT
BRANCH   1  11
ATOM     11  C   UNL     1      19.872  12.281  60.631  1.00  0.00    +0.134 A 
ATOM     12  C   UNL     1      21.796  11.529  59.859  1.00  0.00    +0.118 A 
ATOM     13  C   UNL     1      21.878  11.465  61.234  1.00  0.00    +0.047 A 
ATOM     14  O   UNL     1      20.577  12.016  59.490  1.00  0.00    -0.460 OA
ATOM     15  C   UNL     1      20.644  11.950  61.730  1.00  0.00    +0.051 A 
BRANCH  12  16
ATOM     16  C   UNL     1      22.732  11.171  58.758  1.00  0.00    +0.157 C 
BRANCH  16  17
ATOM     17  N   UNL     1      22.779   9.718  58.574  1.00  0.00    -0.309 NA
ATOM     18  H   UNL     1      23.014   9.290  59.470  1.00  0.00    +0.123 HD
BRANCH  17  19
ATOM     19  C   UNL     1      21.507   9.167  58.091  1.00  0.00    +0.097 C 
BRANCH  19  20
ATOM     20  C   UNL     1      20.964   8.080  59.008  1.00  0.00    +0.152 C 
BRANCH  20  21
ATOM     21  S   UNL     1      22.270   7.088  59.714  1.00  0.00    +0.148 S 
ATOM     22  O   UNL     1      22.921   7.850  60.762  1.00  0.00    -0.229 OA
ATOM     23  O   UNL     1      23.040   6.532  58.617  1.00  0.00    -0.229 OA
ATOM     24  C   UNL     1      21.410   5.735  60.483  1.00  0.00    +0.158 C 
ENDBRANCH  20  21
ENDBRANCH  19  20
ENDBRANCH  17  19
ENDBRANCH  16  17
ENDBRANCH  12  16
ENDBRANCH   1  11
BRANCH   8  25
ATOM     25  N   UNL     1      15.961  13.773  63.788  1.00  0.00    -0.340 N 
ATOM     26  H   UNL     1      15.517  14.485  64.359  1.00  0.00    +0.168 HD
BRANCH  25  27
ATOM     27  C   UNL     1      16.143  12.570  64.507  1.00  0.00    +0.041 A 
ATOM     28  C   UNL     1      15.164  11.567  64.558  1.00  0.00    +0.050 A 
ATOM     29  C   UNL     1      17.396  12.303  65.081  1.00  0.00    +0.030 A 
ATOM     30  C   UNL     1      15.403  10.363  65.226  1.00  0.00    +0.085 A 
ATOM     31  C   UNL     1      17.642  11.101  65.751  1.00  0.00    +0.050 A 
ATOM     32  C   UNL     1      16.635  10.143  65.846  1.00  0.00    +0.138 A 
ATOM     33 Cl   UNL     1      14.157   9.168  65.250  1.00  0.00    -0.080 Cl
BRANCH  32  34
ATOM     34  O   UNL     1      16.929   8.971  66.490  1.00  0.00    -0.487 OA
BRANCH  34  35
ATOM     35  C   UNL     1      16.927   7.861  65.580  1.00  0.00    +0.265 C 
BRANCH  35  36
ATOM     36  C   UNL     1      18.032   8.027  64.565  1.00  0.00    -0.008 A 
ATOM     37  C   UNL     1      17.784   8.643  63.332  1.00  0.00    +0.046 A 
ATOM     38  C   UNL     1      19.324   7.546  64.837  1.00  0.00    +0.007 A 
ATOM     39  C   UNL     1      18.811   8.775  62.403  1.00  0.00    +0.123 A 
ATOM     40  C   UNL     1      20.348   7.686  63.897  1.00  0.00    +0.003 A 
ATOM     41  C   UNL     1      20.091   8.305  62.676  1.00  0.00    +0.039 A 
ATOM     42  F   UNL     1      18.563   9.364  61.226  1.00  0.00    -0.207 F 
ENDBRANCH  35  36
ENDBRANCH  34  35
ENDBRANCH  32  34
ENDBRANCH  25  27
ENDBRANCH   8  25
TORSDOF 11
ENDMDL
MODEL 4
REMARK VINA RESULT:    -9.348      2.744      6.026
REMARK INTER + INTRA:         -17.916
REMARK INTER:                 -15.085
REMARK INTRA:                  -2.830
REMARK UNBOUND:                -2.557
REMARK SMILES CS(=O)(=O)CCNCc1ccc(-c2ccc3ncnc(Nc4ccc(OCc5cccc(F)c5)c(Cl)c4)c3c2)o1
REMARK SMILES IDX 13 1 14 2 15 3 16 4 17 5 18 6 19 7 20 8 38 9 39 10 12 11
REMARK SMILES IDX 9 12 10 13 40 14 11 15 8 16 7 17 6 19 5 20 2 21 3 22 4 23
REMARK SMILES IDX 1 24 21 25 22 27 37 28 23 29 35 30 24 31 25 32 36 33 26 34
REMARK SMILES IDX 27 35 28 36 34 37 29 38 32 39 30 40 31 41 33 42
REMARK H PARENT 7 18 21 26
ROOT
ATOM      1  C   UNL     1      20.228   8.089  59.473  1.00  0.00    +0.018 A 
ATOM      2  C   UNL     1      21.387   8.268  58.716  1.00  0.00    +0.014 A 
ATOM      3  C   UNL     1      22.651   8.057  59.279  1.00  0.00    +0.030 A 
ATOM      4  C   UNL     1      22.810   7.655  60.597  1.00  0.00    +0.076 A 
ATOM      5  N   UNL     1      24.047   7.486  61.069  1.00  0.00    -0.236 NA
ATOM      6  C   UNL     1      24.155   7.107  62.346  1.00  0.00    +0.224 A 
ATOM      7  N   UNL     1      23.144   6.871  63.187  1.00  0.00    -0.219 NA
ATOM      8  C   UNL     1      21.901   7.030  62.700  1.00  0.00    +0.141 A 
ATOM      9  C   UNL     1      21.664   7.449  61.374  1.00  0.00    +0.044 A 
ATOM     10  C   UNL     1      20.380   7.679  60.804  1.00  0.00    +0.026 A 
ENDROOT
BRANCH   1  11
ATOM     11  C   UNL     1      18.902   8.324  58.907  1.00  0.00    +0.134 A 
ATOM     12  C   UNL     1      17.275   9.649  58.228  1.00  0.00    +0.118 A 
ATOM     13  C   UNL     1      16.838   8.359  58.016  1.00  0.00    +0.047 A 
ATOM     14  O   UNL     1      18.523   9.632  58.776  1.00  0.00    -0.460 OA
ATOM     15  C   UNL     1      17.884   7.508  58.449  1.00  0.00    +0.051 A 
BRANCH  12  16
ATOM     16  C   UNL     1      16.667  10.988  58.000  1.00  0.00    +0.157 C 
BRANCH  16  17
ATOM     17  N   UNL     1      17.296  11.994  58.860  1.00  0.00    -0.309 NA
ATOM     18  H   UNL     1      18.039  11.540  59.392  1.00  0.00    +0.123 HD
BRANCH  17  19
ATOM     19  C   UNL     1      17.861  13.116  58.100  1.00  0.00    +0.097 C 
BRANCH  19  20
ATOM     20  C   UNL     1      16.906  14.299  58.022  1.00  0.00    +0.152 C 
BRANCH  20  21
ATOM     21  S   UNL     1      16.928  15.273  59.517  1.00  0.00    +0.148 S 
ATOM     22  O   UNL     1      17.472  16.582  59.214  1.00  0.00    -0.229 OA
ATOM     23  O   UNL     1      17.510  14.456  60.565  1.00  0.00    -0.229 OA
ATOM     24  C   UNL     1      15.207  15.481  59.916  1.00  0.00    +0.158 C 
ENDBRANCH  20  21
ENDBRANCH  19  20
ENDBRANCH  17  19
ENDBRANCH  16  17
ENDBRANCH  12  16
ENDBRANCH   1  11
BRANCH   8  25
ATOM     25  N   UNL     1      20.786   6.744  63.537  1.00  0.00    -0.340 N 
ATOM     26  H   UNL     1      21.025   5.952  64.126  1.00  0.00    +0.168 HD
BRANCH  25  27
ATOM     27  C   UNL     1      19.952   7.662  64.217  1.00  0.00    +0.041 A 
ATOM     28  C   UNL     1      20.053   9.048  64.036  1.00  0.00    +0.050 A 
ATOM     29  C   UNL     1      18.894   7.170  64.999  1.00  0.00    +0.030 A 
ATOM     30  C   UNL     1      19.170   9.922  64.676  1.00  0.00    +0.085 A 
ATOM     31  C   UNL     1      18.008   8.038  65.642  1.00  0.00    +0.050 A 
ATOM     32  C   UNL     1      18.164   9.415  65.501  1.00  0.00    +0.138 A 
ATOM     33 Cl   UNL     1      19.345  11.620  64.410  1.00  0.00    -0.080 Cl
BRANCH  32  34
ATOM     34  O   UNL     1      17.256  10.226  66.130  1.00  0.00    -0.487 OA
BRANCH  34  35
ATOM     35  C   UNL     1      15.932  10.022  65.617  1.00  0.00    +0.265 C 
BRANCH  35  36
ATOM     36  C   UNL     1      15.750  10.805  64.339  1.00  0.00    -0.008 A 
ATOM     37  C   UNL     1      15.566  12.194  64.372  1.00  0.00    +0.046 A 
ATOM     38  C   UNL     1      15.743  10.148  63.098  1.00  0.00    +0.007 A 
ATOM     39  C   UNL     1      15.386  12.898  63.185  1.00  0.00    +0.123 A 
ATOM     40  C   UNL     1      15.563  10.865  61.913  1.00  0.00    +0.003 A 
ATOM     41  C   UNL     1      15.386  12.246  61.957  1.00  0.00    +0.039 A 
ATOM     42  F   UNL     1      15.210  14.224  63.226  1.00  0.00    -0.207 F 
ENDBRANCH  35  36
ENDBRANCH  34  35
ENDBRANCH  32  34
ENDBRANCH  25  27
ENDBRANCH   8  25
TORSDOF 11
ENDMDL
MODEL 5
REMARK VINA RESULT:    -9.285      3.111      6.478
REMARK INTER + INTRA:         -17.813
REMARK INTER:                 -15.439
REMARK INTRA:                  -2.374
REMARK UNBOUND:                -2.557
REMARK SMILES CS(=O)(=O)CCNCc1ccc(-c2ccc3ncnc(Nc4ccc(OCc5cccc(F)c5)c(Cl)c4)c3c2)o1
REMARK SMILES IDX 13 1 14 2 15 3 16 4 17 5 18 6 19 7 20 8 38 9 39 10 12 11
REMARK SMILES IDX 9 12 10 13 40 14 11 15 8 16 7 17 6 19 5 20 2 21 3 22 4 23
REMARK SMILES IDX 1 24 21 25 22 27 37 28 23 29 35 30 24 31 25 32 36 33 26 34
REMARK SMILES IDX 27 35 28 36 34 37 29 38 32 39 30 40 31 41 33 42
REMARK H PARENT 7 18 21 26
ROOT
ATOM      1  C   UNL     1      20.357   9.095  59.507  1.00  0.00    +0.018 A 
ATOM      2  C   UNL     1      21.579   9.276  58.857  1.00  0.00    +0.014 A 
ATOM      3  C   UNL     1      22.763   8.766  59.403  1.00  0.00    +0.030 A 
ATOM      4  C   UNL     1      22.777   8.059  60.596  1.00  0.00    +0.076 A 
ATOM      5  N   UNL     1      23.947   7.614  61.062  1.00  0.00    -0.236 NA
ATOM      6  C   UNL     1      23.916   6.945  62.218  1.00  0.00    +0.224 A 
ATOM      7  N   UNL     1      22.828   6.669  62.941  1.00  0.00    -0.219 NA
ATOM      8  C   UNL     1      21.652   7.108  62.458  1.00  0.00    +0.141 A 
ATOM      9  C   UNL     1      21.563   7.845  61.259  1.00  0.00    +0.044 A 
ATOM     10  C   UNL     1      20.362   8.377  60.710  1.00  0.00    +0.026 A 
ENDROOT
BRANCH   1  11
ATOM     11  C   UNL     1      19.114   9.636  58.962  1.00  0.00    +0.134 A 
ATOM     12  C   UNL     1      17.849  11.304  58.268  1.00  0.00    +0.118 A 
ATOM     13  C   UNL     1      17.098  10.158  58.116  1.00  0.00    +0.047 A 
ATOM     14  O   UNL     1      19.070  10.991  58.788  1.00  0.00    -0.460 OA
ATOM     15  C   UNL     1      17.911   9.086  58.560  1.00  0.00    +0.051 A 
BRANCH  12  16
ATOM     16  C   UNL     1      17.588  12.744  58.000  1.00  0.00    +0.157 C 
BRANCH  16  17
ATOM     17  N   UNL     1      17.183  13.432  59.229  1.00  0.00    -0.309 NA
ATOM     18  H   UNL     1      17.883  14.143  59.442  1.00  0.00    +0.123 HD
BRANCH  17  19
ATOM     19  C   UNL     1      15.865  14.068  59.114  1.00  0.00    +0.097 C 
BRANCH  19  20
ATOM     20  C   UNL     1      15.668  15.177  60.138  1.00  0.00    +0.152 C 
BRANCH  20  21
ATOM     21  S   UNL     1      13.951  15.379  60.581  1.00  0.00    +0.148 S 
ATOM     22  O   UNL     1      13.357  16.375  59.711  1.00  0.00    -0.229 OA
ATOM     23  O   UNL     1      13.885  15.524  62.023  1.00  0.00    -0.229 OA
ATOM     24  C   UNL     1      13.220  13.807  60.183  1.00  0.00    +0.158 C 
ENDBRANCH  20  21
ENDBRANCH  19  20
ENDBRANCH  17  19
ENDBRANCH  16  17
ENDBRANCH  12  16
ENDBRANCH   1  11
BRANCH   8  25
ATOM     25  N   UNL     1      20.454   6.800  63.163  1.00  0.00    -0.340 N 
ATOM     26  H   UNL     1      20.542   5.863  63.545  1.00  0.00    +0.168 HD
BRANCH  25  27
ATOM     27  C   UNL     1      19.710   7.642  64.021  1.00  0.00    +0.041 A 
ATOM     28  C   UNL     1      19.830   9.039  63.996  1.00  0.00    +0.050 A 
ATOM     29  C   UNL     1      18.715   7.076  64.835  1.00  0.00    +0.030 A 
ATOM     30  C   UNL     1      19.032   9.843  64.815  1.00  0.00    +0.085 A 
ATOM     31  C   UNL     1      17.914   7.874  65.656  1.00  0.00    +0.050 A 
ATOM     32  C   UNL     1      18.092   9.256  65.664  1.00  0.00    +0.138 A 
ATOM     33 Cl   UNL     1      19.227  11.557  64.735  1.00  0.00    -0.080 Cl
BRANCH  32  34
ATOM     34  O   UNL     1      17.268   9.999  66.466  1.00  0.00    -0.487 OA
BRANCH  34  35
ATOM     35  C   UNL     1      15.909   9.945  66.009  1.00  0.00    +0.265 C 
BRANCH  35  36
ATOM     36  C   UNL     1      15.771  10.714  64.717  1.00  0.00    -0.008 A 
ATOM     37  C   UNL     1      15.660  10.041  63.493  1.00  0.00    +0.046 A 
ATOM     38  C   UNL     1      15.770  12.119  64.723  1.00  0.00    +0.007 A 
ATOM     39  C   UNL     1      15.547  10.766  62.311  1.00  0.00    +0.123 A 
ATOM     40  C   UNL     1      15.654  12.836  63.530  1.00  0.00    +0.003 A 
ATOM     41  C   UNL     1      15.541  12.157  62.319  1.00  0.00    +0.039 A 
ATOM     42  F   UNL     1      15.445  10.114  61.146  1.00  0.00    -0.207 F 
ENDBRANCH  35  36
ENDBRANCH  34  35
ENDBRANCH  32  34
ENDBRANCH  25  27
ENDBRANCH   8  25
TORSDOF 11
ENDMDL
MODEL 6
REMARK VINA RESULT:    -9.196      2.185      3.047
REMARK INTER + INTRA:         -17.667
REMARK INTER:                 -15.147
REMARK INTRA:                  -2.519
REMARK UNBOUND:                -2.557
REMARK SMILES CS(=O)(=O)CCNCc1ccc(-c2ccc3ncnc(Nc4ccc(OCc5cccc(F)c5)c(Cl)c4)c3c2)o1
REMARK SMILES IDX 13 1 14 2 15 3 16 4 17 5 18 6 19 7 20 8 38 9 39 10 12 11
REMARK SMILES IDX 9 12 10 13 40 14 11 15 8 16 7 17 6 19 5 20 2 21 3 22 4 23
REMARK SMILES IDX 1 24 21 25 22 27 37 28 23 29 35 30 24 31 25 32 36 33 26 34
REMARK SMILES IDX 27 35 28 36 34 37 29 38 32 39 30 40 31 41 33 42
REMARK H PARENT 7 18 21 26
ROOT
ATOM      1  C   UNL     1      19.691   7.625  63.831  1.00  0.00    +0.018 A 
ATOM      2  C   UNL     1      19.299   6.569  64.655  1.00  0.00    +0.014 A 
ATOM      3  C   UNL     1      18.345   6.761  65.662  1.00  0.00    +0.030 A 
ATOM      4  C   UNL     1      17.745   7.993  65.879  1.00  0.00    +0.076 A 
ATOM      5  N   UNL     1      16.853   8.104  66.866  1.00  0.00    -0.236 NA
ATOM      6  C   UNL     1      16.306   9.310  67.047  1.00  0.00    +0.224 A 
ATOM      7  N   UNL     1      16.557  10.406  66.326  1.00  0.00    -0.219 NA
ATOM      8  C   UNL     1      17.447  10.282  65.324  1.00  0.00    +0.141 A 
ATOM      9  C   UNL     1      18.105   9.065  65.054  1.00  0.00    +0.044 A 
ATOM     10  C   UNL     1      19.086   8.871  64.041  1.00  0.00    +0.026 A 
ENDROOT
BRANCH   1  11
ATOM     11  C   UNL     1      20.699   7.447  62.788  1.00  0.00    +0.134 A 
ATOM     12  C   UNL     1      21.369   7.514  60.688  1.00  0.00    +0.118 A 
ATOM     13  C   UNL     1      22.451   7.084  61.427  1.00  0.00    +0.047 A 
ATOM     14  O   UNL     1      20.302   7.728  61.510  1.00  0.00    -0.460 OA
ATOM     15  C   UNL     1      22.021   7.044  62.776  1.00  0.00    +0.051 A 
BRANCH  12  16
ATOM     16  C   UNL     1      21.152   7.762  59.237  1.00  0.00    +0.157 C 
BRANCH  16  17
ATOM     17  N   UNL     1      20.049   8.706  59.034  1.00  0.00    -0.309 NA
ATOM     18  H   UNL     1      19.588   8.855  59.932  1.00  0.00    +0.123 HD
BRANCH  17  19
ATOM     19  C   UNL     1      20.500   9.996  58.500  1.00  0.00    +0.097 C 
BRANCH  19  20
ATOM     20  C   UNL     1      21.441  10.719  59.452  1.00  0.00    +0.152 C 
BRANCH  20  21
ATOM     21  S   UNL     1      20.574  11.407  60.854  1.00  0.00    +0.148 S 
ATOM     22  O   UNL     1      19.321  10.698  61.022  1.00  0.00    -0.229 OA
ATOM     23  O   UNL     1      20.594  12.850  60.715  1.00  0.00    -0.229 OA
ATOM     24  C   UNL     1      21.615  11.003  62.238  1.00  0.00    +0.158 C 
ENDBRANCH  20  21
ENDBRANCH  19  20
ENDBRANCH  17  19
ENDBRANCH  16  17
ENDBRANCH  12  16
ENDBRANCH   1  11
BRANCH   8  25
ATOM     25  N   UNL     1      17.716  11.406  64.493  1.00  0.00    -0.340 N 
ATOM     26  H   UNL     1      18.651  11.303  64.112  1.00  0.00    +0.168 HD
BRANCH  25  27
ATOM     27  C   UNL     1      16.846  12.032  63.571  1.00  0.00    +0.041 A 
ATOM     28  C   UNL     1      16.220  11.331  62.530  1.00  0.00    +0.050 A 
ATOM     29  C   UNL     1      16.485  13.374  63.778  1.00  0.00    +0.030 A 
ATOM     30  C   UNL     1      15.317  11.970  61.675  1.00  0.00    +0.085 A 
ATOM     31  C   UNL     1      15.583  14.018  62.928  1.00  0.00    +0.050 A 
ATOM     32  C   UNL     1      15.020  13.322  61.860  1.00  0.00    +0.138 A 
ATOM     33 Cl   UNL     1      14.578  11.050  60.414  1.00  0.00    -0.080 Cl
BRANCH  32  34
ATOM     34  O   UNL     1      14.123  13.987  61.069  1.00  0.00    -0.487 OA
BRANCH  34  35
ATOM     35  C   UNL     1      14.423  13.811  59.677  1.00  0.00    +0.265 C 
BRANCH  35  36
ATOM     36  C   UNL     1      15.755  14.445  59.355  1.00  0.00    -0.008 A 
ATOM     37  C   UNL     1      16.794  13.685  58.803  1.00  0.00    +0.046 A 
ATOM     38  C   UNL     1      15.977  15.806  59.622  1.00  0.00    +0.007 A 
ATOM     39  C   UNL     1      18.019  14.283  58.525  1.00  0.00    +0.123 A 
ATOM     40  C   UNL     1      17.210  16.397  59.338  1.00  0.00    +0.003 A 
ATOM     41  C   UNL     1      18.235  15.632  58.785  1.00  0.00    +0.039 A 
ATOM     42  F   UNL     1      19.007  13.547  58.000  1.00  0.00    -0.207 F 
ENDBRANCH  35  36
ENDBRANCH  34  35
ENDBRANCH  32  34
ENDBRANCH  25  27
ENDBRANCH   8  25
TORSDOF 11
ENDMDL
MODEL 7
REMARK VINA RESULT:    -9.082      3.139      6.451
REMARK INTER + INTRA:         -17.479
REMARK INTER:                 -14.832
REMARK INTRA:                  -2.648
REMARK UNBOUND:                -2.557
REMARK SMILES CS(=O)(=O)CCNCc1ccc(-c2ccc3ncnc(Nc4ccc(OCc5cccc(F)c5)c(Cl)c4)c3c2)o1
REMARK SMILES IDX 13 1 14 2 15 3 16 4 17 5 18 6 19 7 20 8 38 9 39 10 12 11
REMARK SMILES IDX 9 12 10 13 40 14 11 15 8 16 7 17 6 19 5 20 2 21 3 22 4 23
REMARK SMILES IDX 1 24 21 25 22 27 37 28 23 29 35 30 24 31 25 32 36 33 26 34
REMARK SMILES IDX 27 35 28 36 34 37 29 38 32 39 30 40 31 41 33 42
REMARK H PARENT 7 18 21 26
ROOT
ATOM      1  C   UNL     1      19.504   9.982  59.933  1.00  0.00    +0.018 A 
ATOM      2  C   UNL     1      19.297   9.404  58.680  1.00  0.00    +0.014 A 
ATOM      3  C   UNL     1      19.627   8.064  58.445  1.00  0.00    +0.030 A 
ATOM      4  C   UNL     1      20.160   7.255  59.438  1.00  0.00    +0.076 A 
ATOM      5  N   UNL     1      20.463   5.989  59.137  1.00  0.00    -0.236 NA
ATOM      6  C   UNL     1      20.983   5.247  60.119  1.00  0.00    +0.224 A 
ATOM      7  N   UNL     1      21.214   5.648  61.372  1.00  0.00    -0.219 NA
ATOM      8  C   UNL     1      20.894   6.920  61.671  1.00  0.00    +0.141 A 
ATOM      9  C   UNL     1      20.361   7.803  60.710  1.00  0.00    +0.044 A 
ATOM     10  C   UNL     1      20.038   9.170  60.942  1.00  0.00    +0.026 A 
ENDROOT
BRANCH   1  11
ATOM     11  C   UNL     1      19.184  11.384  60.190  1.00  0.00    +0.134 A 
ATOM     12  C   UNL     1      18.553  13.395  59.538  1.00  0.00    +0.118 A 
ATOM     13  C   UNL     1      18.754  13.474  60.900  1.00  0.00    +0.047 A 
ATOM     14  O   UNL     1      18.821  12.130  59.103  1.00  0.00    -0.460 OA
ATOM     15  C   UNL     1      19.156  12.182  61.319  1.00  0.00    +0.051 A 
BRANCH  12  16
ATOM     16  C   UNL     1      18.137  14.380  58.504  1.00  0.00    +0.157 C 
BRANCH  16  17
ATOM     17  N   UNL     1      16.792  14.071  58.009  1.00  0.00    -0.309 NA
ATOM     18  H   UNL     1      16.837  13.193  57.491  1.00  0.00    +0.123 HD
BRANCH  17  19
ATOM     19  C   UNL     1      15.806  13.948  59.088  1.00  0.00    +0.097 C 
BRANCH  19  20
ATOM     20  C   UNL     1      15.631  15.247  59.862  1.00  0.00    +0.152 C 
BRANCH  20  21
ATOM     21  S   UNL     1      13.959  15.455  60.450  1.00  0.00    +0.148 S 
ATOM     22  O   UNL     1      13.287  16.430  59.614  1.00  0.00    -0.229 OA
ATOM     23  O   UNL     1      14.018  15.631  61.888  1.00  0.00    -0.229 OA
ATOM     24  C   UNL     1      13.202  13.873  60.151  1.00  0.00    +0.158 C 
ENDBRANCH  20  21
ENDBRANCH  19  20
ENDBRANCH  17  19
ENDBRANCH  16  17
ENDBRANCH  12  16
ENDBRANCH   1  11
BRANCH   8  25
ATOM     25  N   UNL     1      21.074   7.386  63.005  1.00  0.00    -0.340 N 
ATOM     26  H   UNL     1      21.972   7.856  63.059  1.00  0.00    +0.168 HD
BRANCH  25  27
ATOM     27  C   UNL     1      20.117   7.996  63.848  1.00  0.00    +0.041 A 
ATOM     28  C   UNL     1      20.024   9.387  63.999  1.00  0.00    +0.050 A 
ATOM     29  C   UNL     1      19.135   7.196  64.454  1.00  0.00    +0.030 A 
ATOM     30  C   UNL     1      19.025   9.958  64.792  1.00  0.00    +0.085 A 
ATOM     31  C   UNL     1      18.133   7.760  65.248  1.00  0.00    +0.050 A 
ATOM     32  C   UNL     1      18.096   9.139  65.438  1.00  0.00    +0.138 A 
ATOM     33 Cl   UNL     1      18.962  11.678  64.935  1.00  0.00    -0.080 Cl
BRANCH  32  34
ATOM     34  O   UNL     1      17.082   9.649  66.204  1.00  0.00    -0.487 OA
BRANCH  34  35
ATOM     35  C   UNL     1      15.817   9.538  65.536  1.00  0.00    +0.265 C 
BRANCH  35  36
ATOM     36  C   UNL     1      15.723  10.570  64.438  1.00  0.00    -0.008 A 
ATOM     37  C   UNL     1      15.781  10.189  63.092  1.00  0.00    +0.046 A 
ATOM     38  C   UNL     1      15.594  11.932  64.754  1.00  0.00    +0.007 A 
ATOM     39  C   UNL     1      15.706  11.155  62.094  1.00  0.00    +0.123 A 
ATOM     40  C   UNL     1      15.518  12.894  63.744  1.00  0.00    +0.003 A 
ATOM     41  C   UNL     1      15.573  12.503  62.408  1.00  0.00    +0.039 A 
ATOM     42  F   UNL     1      15.765  10.781  60.809  1.00  0.00    -0.207 F 
ENDBRANCH  35  36
ENDBRANCH  34  35
ENDBRANCH  32  34
ENDBRANCH  25  27
ENDBRANCH   8  25
TORSDOF 11
ENDMDL
MODEL 8
REMARK VINA RESULT:    -8.949      2.486      5.920
REMARK INTER + INTRA:         -17.262
REMARK INTER:                 -15.260
REMARK INTRA:                  -2.002
REMARK UNBOUND:                -2.557
REMARK SMILES CS(=O)(=O)CCNCc1ccc(-c2ccc3ncnc(Nc4ccc(OCc5cccc(F)c5)c(Cl)c4)c3c2)o1
REMARK SMILES IDX 13 1 14 2 15 3 16 4 17 5 18 6 19 7 20 8 38 9 39 10 12 11
REMARK SMILES IDX 9 12 10 13 40 14 11 15 8 16 7 17 6 19 5 20 2 21 3 22 4 23
REMARK SMILES IDX 1 24 21 25 22 27 37 28 23 29 35 30 24 31 25 32 36 33 26 34
REMARK SMILES IDX 27 35 28 36 34 37 29 38 32 39 30 40 31 41 33 42
REMARK H PARENT 7 18 21 26
ROOT
ATOM      1  C   UNL     1      20.590  10.208  62.256  1.00  0.00    +0.018 A 
ATOM      2  C   UNL     1      21.242   9.521  63.282  1.00  0.00    +0.014 A 
ATOM      3  C   UNL     1      22.222   8.564  62.995  1.00  0.00    +0.030 A 
ATOM      4  C   UNL     1      22.594   8.263  61.692  1.00  0.00    +0.076 A 
ATOM      5  N   UNL     1      23.528   7.330  61.494  1.00  0.00    -0.236 NA
ATOM      6  C   UNL     1      23.850   7.064  60.225  1.00  0.00    +0.224 A 
ATOM      7  N   UNL     1      23.338   7.653  59.142  1.00  0.00    -0.219 NA
ATOM      8  C   UNL     1      22.408   8.602  59.350  1.00  0.00    +0.141 A 
ATOM      9  C   UNL     1      21.971   8.950  60.645  1.00  0.00    +0.044 A 
ATOM     10  C   UNL     1      20.964   9.913  60.939  1.00  0.00    +0.026 A 
ENDROOT
BRANCH   1  11
ATOM     11  C   UNL     1      19.551  11.195  62.538  1.00  0.00    +0.134 A 
ATOM     12  C   UNL     1      18.138  12.212  63.892  1.00  0.00    +0.118 A 
ATOM     13  C   UNL     1      17.981  12.801  62.655  1.00  0.00    +0.047 A 
ATOM     14  O   UNL     1      19.084  11.233  63.822  1.00  0.00    -0.460 OA
ATOM     15  C   UNL     1      18.891  12.150  61.786  1.00  0.00    +0.051 A 
BRANCH  12  16
ATOM     16  C   UNL     1      17.493  12.422  65.216  1.00  0.00    +0.157 C 
BRANCH  16  17
ATOM     17  N   UNL     1      16.462  11.407  65.455  1.00  0.00    -0.309 NA
ATOM     18  H   UNL     1      16.386  10.827  64.619  1.00  0.00    +0.123 HD
BRANCH  17  19
ATOM     19  C   UNL     1      16.764  10.554  66.611  1.00  0.00    +0.097 C 
BRANCH  19  20
ATOM     20  C   UNL     1      17.659   9.379  66.243  1.00  0.00    +0.152 C 
BRANCH  20  21
ATOM     21  S   UNL     1      16.861   8.264  65.100  1.00  0.00    +0.148 S 
ATOM     22  O   UNL     1      17.118   8.717  63.748  1.00  0.00    -0.229 OA
ATOM     23  O   UNL     1      15.502   8.059  65.565  1.00  0.00    -0.229 OA
ATOM     24  C   UNL     1      17.725   6.727  65.330  1.00  0.00    +0.158 C 
ENDBRANCH  20  21
ENDBRANCH  19  20
ENDBRANCH  17  19
ENDBRANCH  16  17
ENDBRANCH  12  16
ENDBRANCH   1  11
BRANCH   8  25
ATOM     25  N   UNL     1      21.863   9.297  58.233  1.00  0.00    -0.340 N 
ATOM     26  H   UNL     1      22.100   8.781  57.391  1.00  0.00    +0.168 HD
BRANCH  25  27
ATOM     27  C   UNL     1      20.594   9.910  58.126  1.00  0.00    +0.041 A 
ATOM     28  C   UNL     1      19.397   9.187  58.231  1.00  0.00    +0.050 A 
ATOM     29  C   UNL     1      20.519  11.310  58.047  1.00  0.00    +0.030 A 
ATOM     30  C   UNL     1      18.160   9.836  58.184  1.00  0.00    +0.085 A 
ATOM     31  C   UNL     1      19.285  11.965  58.000  1.00  0.00    +0.050 A 
ATOM     32  C   UNL     1      18.106  11.224  58.041  1.00  0.00    +0.138 A 
ATOM     33 Cl   UNL     1      16.722   8.890  58.321  1.00  0.00    -0.080 Cl
BRANCH  32  34
ATOM     34  O   UNL     1      16.922  11.911  58.017  1.00  0.00    -0.487 OA
BRANCH  34  35
ATOM     35  C   UNL     1      17.038  13.176  58.684  1.00  0.00    +0.265 C 
BRANCH  35  36
ATOM     36  C   UNL     1      15.748  13.501  59.398  1.00  0.00    -0.008 A 
ATOM     37  C   UNL     1      14.589  12.752  59.156  1.00  0.00    +0.046 A 
ATOM     38  C   UNL     1      15.688  14.573  60.302  1.00  0.00    +0.007 A 
ATOM     39  C   UNL     1      13.406  13.074  59.812  1.00  0.00    +0.123 A 
ATOM     40  C   UNL     1      14.495  14.887  60.957  1.00  0.00    +0.003 A 
ATOM     41  C   UNL     1      13.349  14.133  60.712  1.00  0.00    +0.039 A 
ATOM     42  F   UNL     1      12.303  12.354  59.573  1.00  0.00    -0.207 F 
ENDBRANCH  35  36
ENDBRANCH  34  35
ENDBRANCH  32  34
ENDBRANCH  25  27
ENDBRANCH   8  25
TORSDOF 11
ENDMDL
MODEL 9
REMARK VINA RESULT:    -8.883      2.229      5.215
REMARK INTER + INTRA:         -17.152
REMARK INTER:                 -14.427
REMARK INTRA:                  -2.725
REMARK UNBOUND:                -2.557
REMARK SMILES CS(=O)(=O)CCNCc1ccc(-c2ccc3ncnc(Nc4ccc(OCc5cccc(F)c5)c(Cl)c4)c3c2)o1
REMARK SMILES IDX 13 1 14 2 15 3 16 4 17 5 18 6 19 7 20 8 38 9 39 10 12 11
REMARK SMILES IDX 9 12 10 13 40 14 11 15 8 16 7 17 6 19 5 20 2 21 3 22 4 23
REMARK SMILES IDX 1 24 21 25 22 27 37 28 23 29 35 30 24 31 25 32 36 33 26 34
REMARK SMILES IDX 27 35 28 36 34 37 29 38 32 39 30 40 31 41 33 42
REMARK H PARENT 7 18 21 26
ROOT
ATOM      1  C   UNL     1      20.251   9.500  63.379  1.00  0.00    +0.018 A 
ATOM      2  C   UNL     1      20.501   8.258  63.966  1.00  0.00    +0.014 A 
ATOM      3  C   UNL     1      21.181   7.257  63.262  1.00  0.00    +0.030 A 
ATOM      4  C   UNL     1      21.641   7.454  61.968  1.00  0.00    +0.076 A 
ATOM      5  N   UNL     1      22.270   6.448  61.354  1.00  0.00    -0.236 NA
ATOM      6  C   UNL     1      22.689   6.676  60.106  1.00  0.00    +0.224 A 
ATOM      7  N   UNL     1      22.550   7.815  59.423  1.00  0.00    -0.219 NA
ATOM      8  C   UNL     1      21.928   8.828  60.053  1.00  0.00    +0.141 A 
ATOM      9  C   UNL     1      21.422   8.696  61.363  1.00  0.00    +0.044 A 
ATOM     10  C   UNL     1      20.717   9.707  62.075  1.00  0.00    +0.026 A 
ENDROOT
BRANCH   1  11
ATOM     11  C   UNL     1      19.526  10.550  64.092  1.00  0.00    +0.134 A 
ATOM     12  C   UNL     1      17.907  11.252  65.415  1.00  0.00    +0.118 A 
ATOM     13  C   UNL     1      18.633  12.370  65.064  1.00  0.00    +0.047 A 
ATOM     14  O   UNL     1      18.441  10.147  64.821  1.00  0.00    -0.460 OA
ATOM     15  C   UNL     1      19.675  11.918  64.217  1.00  0.00    +0.051 A 
BRANCH  12  16
ATOM     16  C   UNL     1      16.703  11.036  66.262  1.00  0.00    +0.157 C 
BRANCH  16  17
ATOM     17  N   UNL     1      15.987   9.828  65.843  1.00  0.00    -0.309 NA
ATOM     18  H   UNL     1      15.356   9.553  66.596  1.00  0.00    +0.123 HD
BRANCH  17  19
ATOM     19  C   UNL     1      15.214  10.027  64.611  1.00  0.00    +0.097 C 
BRANCH  19  20
ATOM     20  C   UNL     1      15.845   9.330  63.414  1.00  0.00    +0.152 C 
BRANCH  20  21
ATOM     21  S   UNL     1      15.944  10.405  61.992  1.00  0.00    +0.148 S 
ATOM     22  O   UNL     1      14.893  10.045  61.061  1.00  0.00    -0.229 OA
ATOM     23  O   UNL     1      17.330  10.441  61.566  1.00  0.00    -0.229 OA
ATOM     24  C   UNL     1      15.561  12.014  62.646  1.00  0.00    +0.158 C 
ENDBRANCH  20  21
ENDBRANCH  19  20
ENDBRANCH  17  19
ENDBRANCH  16  17
ENDBRANCH  12  16
ENDBRANCH   1  11
BRANCH   8  25
ATOM     25  N   UNL     1      21.795  10.081  59.390  1.00  0.00    -0.340 N 
ATOM     26  H   UNL     1      22.517  10.141  58.678  1.00  0.00    +0.168 HD
BRANCH  25  27
ATOM     27  C   UNL     1      20.605  10.725  58.979  1.00  0.00    +0.041 A 
ATOM     28  C   UNL     1      19.428  10.020  58.690  1.00  0.00    +0.050 A 
ATOM     29  C   UNL     1      20.553  12.128  58.989  1.00  0.00    +0.030 A 
ATOM     30  C   UNL     1      18.253  10.694  58.348  1.00  0.00    +0.085 A 
ATOM     31  C   UNL     1      19.381  12.808  58.648  1.00  0.00    +0.050 A 
ATOM     32  C   UNL     1      18.239  12.090  58.302  1.00  0.00    +0.138 A 
ATOM     33 Cl   UNL     1      16.836   9.768  58.006  1.00  0.00    -0.080 Cl
BRANCH  32  34
ATOM     34  O   UNL     1      17.108  12.799  58.000  1.00  0.00    -0.487 OA
BRANCH  34  35
ATOM     35  C   UNL     1      16.962  13.940  58.858  1.00  0.00    +0.265 C 
BRANCH  35  36
ATOM     36  C   UNL     1      15.576  13.959  59.456  1.00  0.00    -0.008 A 
ATOM     37  C   UNL     1      15.180  14.996  60.310  1.00  0.00    +0.046 A 
ATOM     38  C   UNL     1      14.668  12.924  59.177  1.00  0.00    +0.007 A 
ATOM     39  C   UNL     1      13.903  14.990  60.862  1.00  0.00    +0.123 A 
ATOM     40  C   UNL     1      13.388  12.929  59.735  1.00  0.00    +0.003 A 
ATOM     41  C   UNL     1      13.003  13.968  60.581  1.00  0.00    +0.039 A 
ATOM     42  F   UNL     1      13.534  15.985  61.679  1.00  0.00    -0.207 F 
ENDBRANCH  35  36
ENDBRANCH  34  35
ENDBRANCH  32  34
ENDBRANCH  25  27
ENDBRANCH   8  25
TORSDOF 11
ENDMDL
