MODEL 1
REMARK VINA RESULT:   -10.185      0.000      0.000
REMARK INTER + INTRA:         -19.549
REMARK INTER:                 -16.735
REMARK INTRA:                  -2.814
REMARK UNBOUND:                -2.814
REMARK SMILES CS(=O)(=O)CCNCc1ccc(-c2ccc3ncnc(Nc4ccc(OCc5cccc(F)c5)c(Cl)c4)c3c2)o1
REMARK SMILES IDX 13 1 14 2 15 3 16 4 17 5 18 6 19 7 20 8 38 9 39 10 12 11
REMARK SMILES IDX 9 12 10 13 40 14 11 15 8 16 7 17 6 19 5 20 2 21 3 22 4 23
REMARK SMILES IDX 1 24 21 25 22 27 37 28 23 29 35 30 24 31 25 32 36 33 26 34
REMARK SMILES IDX 27 35 28 36 34 37 29 38 32 39 30 40 31 41 33 42
REMARK H PARENT 7 18 21 26
ROOT
ATOM      1  C   UNL     1     -23.265 -17.595 -14.756  1.00  0.00    +0.018 A 
ATOM      2  C   UNL     1     -24.254 -18.496 -15.155  1.00  0.00    +0.014 A 
ATOM      3  C   UNL     1     -24.000 -19.872 -15.183  1.00  0.00    +0.030 A 
ATOM      4  C   UNL     1     -22.772 -20.400 -14.812  1.00  0.00    +0.076 A 
ATOM      5  N   UNL     1     -22.599 -21.722 -14.877  1.00  0.00    -0.236 NA
ATOM      6  C   UNL     1     -21.399 -22.188 -14.519  1.00  0.00    +0.224 A 
ATOM      7  N   UNL     1     -20.365 -21.458 -14.091  1.00  0.00    -0.219 NA
ATOM      8  C   UNL     1     -20.552 -20.128 -14.015  1.00  0.00    +0.141 A 
ATOM      9  C   UNL     1     -21.768 -19.521 -14.389  1.00  0.00    +0.044 A 
ATOM     10  C   UNL     1     -22.024 -18.121 -14.374  1.00  0.00    +0.026 A 
ENDROOT
BRANCH   1  11
ATOM     11  C   UNL     1     -23.506 -16.154 -14.738  1.00  0.00    +0.134 A 
ATOM     12  C   UNL     1     -23.434 -14.173 -13.770  1.00  0.00    +0.118 A 
ATOM     13  C   UNL     1     -23.994 -13.977 -15.015  1.00  0.00    +0.047 A 
ATOM     14  O   UNL     1     -23.144 -15.494 -13.596  1.00  0.00    -0.460 OA
ATOM     15  C   UNL     1     -24.038 -15.248 -15.637  1.00  0.00    +0.051 A 
BRANCH  12  16
ATOM     16  C   UNL     1     -23.117 -13.266 -12.634  1.00  0.00    +0.157 C 
BRANCH  16  17
ATOM     17  N   UNL     1     -22.173 -12.227 -13.052  1.00  0.00    -0.309 NA
ATOM     18  H   UNL     1     -22.595 -11.317 -12.865  1.00  0.00    +0.123 HD
BRANCH  17  19
ATOM     19  C   UNL     1     -20.886 -12.316 -12.352  1.00  0.00    +0.097 C 
BRANCH  19  20
ATOM     20  C   UNL     1     -20.280 -13.710 -12.434  1.00  0.00    +0.152 C 
BRANCH  20  21
ATOM     21  S   UNL     1     -19.614 -14.054 -14.055  1.00  0.00    +0.148 S 
ATOM     22  O   UNL     1     -19.781 -12.880 -14.888  1.00  0.00    -0.229 OA
ATOM     23  O   UNL     1     -20.133 -15.341 -14.478  1.00  0.00    -0.229 OA
ATOM     24  C   UNL     1     -17.873 -14.268 -13.764  1.00  0.00    +0.158 C 
ENDBRANCH  20  21
ENDBRANCH  19  20
ENDBRANCH  17  19
ENDBRANCH  16  17
ENDBRANCH  12  16
ENDBRANCH   1  11
BRANCH   8  25
ATOM     25  N   UNL     1     -19.500 -19.307 -13.518  1.00  0.00    -0.340 N 
ATOM     26  H   UNL     1     -19.211 -18.677 -14.260  1.00  0.00    +0.168 HD
BRANCH  25  27
ATOM     27  C   UNL     1     -19.404 -18.692 -12.249  1.00  0.00    +0.041 A 
ATOM     28  C   UNL     1     -19.305 -19.429 -11.060  1.00  0.00    +0.050 A 
ATOM     29  C   UNL     1     -19.266 -17.297 -12.178  1.00  0.00    +0.030 A 
ATOM     30  C   UNL     1     -19.147 -18.787  -9.828  1.00  0.00    +0.085 A 
ATOM     31  C   UNL     1     -19.108 -16.649 -10.950  1.00  0.00    +0.050 A 
ATOM     32  C   UNL     1     -19.076 -17.394  -9.773  1.00  0.00    +0.138 A 
ATOM     33 Cl   UNL     1     -19.029 -19.752  -8.401  1.00  0.00    -0.080 Cl
BRANCH  32  34
ATOM     34  O   UNL     1     -18.894 -16.718  -8.596  1.00  0.00    -0.487 OA
BRANCH  34  35
ATOM     35  C   UNL     1     -19.745 -15.565  -8.521  1.00  0.00    +0.265 C 
BRANCH  35  36
ATOM     36  C   UNL     1     -21.167 -15.992  -8.250  1.00  0.00    -0.008 A 
ATOM     37  C   UNL     1     -21.504 -16.636  -7.052  1.00  0.00    +0.046 A 
ATOM     38  C   UNL     1     -22.171 -15.767  -9.206  1.00  0.00    +0.007 A 
ATOM     39  C   UNL     1     -22.818 -17.035  -6.825  1.00  0.00    +0.123 A 
ATOM     40  C   UNL     1     -23.487 -16.170  -8.967  1.00  0.00    +0.003 A 
ATOM     41  C   UNL     1     -23.811 -16.806  -7.770  1.00  0.00    +0.039 A 
ATOM     42  F   UNL     1     -23.130 -17.651  -5.678  1.00  0.00    -0.207 F 
ENDBRANCH  35  36
ENDBRANCH  34  35
ENDBRANCH  32  34
ENDBRANCH  25  27
ENDBRANCH   8  25
TORSDOF 11
ENDMDL
MODEL 2
REMARK VINA RESULT:    -9.623      3.594      6.983
REMARK INTER + INTRA:         -18.626
REMARK INTER:                 -17.473
REMARK INTRA:                  -1.153
REMARK UNBOUND:                -2.814
REMARK SMILES CS(=O)(=O)CCNCc1ccc(-c2ccc3ncnc(Nc4ccc(OCc5cccc(F)c5)c(Cl)c4)c3c2)o1
REMARK SMILES IDX 13 1 14 2 15 3 16 4 17 5 18 6 19 7 20 8 38 9 39 10 12 11
REMARK SMILES IDX 9 12 10 13 40 14 11 15 8 16 7 17 6 19 5 20 2 21 3 22 4 23
REMARK SMILES IDX 1 24 21 25 22 27 37 28 23 29 35 30 24 31 25 32 36 33 26 34
REMARK SMILES IDX 27 35 28 36 34 37 29 38 32 39 30 40 31 41 33 42
REMARK H PARENT 7 18 21 26
ROOT
ATOM      1  C   UNL     1     -22.100 -16.324 -14.134  1.00  0.00    +0.018 A 
ATOM      2  C   UNL     1     -22.955 -16.282 -15.238  1.00  0.00    +0.014 A 
ATOM      3  C   UNL     1     -23.806 -15.190 -15.444  1.00  0.00    +0.030 A 
ATOM      4  C   UNL     1     -23.834 -14.107 -14.578  1.00  0.00    +0.076 A 
ATOM      5  N   UNL     1     -24.681 -13.107 -14.832  1.00  0.00    -0.236 NA
ATOM      6  C   UNL     1     -24.683 -12.088 -13.967  1.00  0.00    +0.224 A 
ATOM      7  N   UNL     1     -23.909 -11.971 -12.885  1.00  0.00    -0.219 NA
ATOM      8  C   UNL     1     -23.048 -12.975 -12.644  1.00  0.00    +0.141 A 
ATOM      9  C   UNL     1     -22.974 -14.113 -13.473  1.00  0.00    +0.044 A 
ATOM     10  C   UNL     1     -22.120 -15.231 -13.258  1.00  0.00    +0.026 A 
ENDROOT
BRANCH   1  11
ATOM     11  C   UNL     1     -21.219 -17.464 -13.893  1.00  0.00    +0.134 A 
ATOM     12  C   UNL     1     -20.714 -19.606 -14.034  1.00  0.00    +0.118 A 
ATOM     13  C   UNL     1     -19.661 -19.001 -13.383  1.00  0.00    +0.047 A 
ATOM     14  O   UNL     1     -21.665 -18.678 -14.338  1.00  0.00    -0.460 OA
ATOM     15  C   UNL     1     -19.984 -17.625 -13.295  1.00  0.00    +0.051 A 
BRANCH  12  16
ATOM     16  C   UNL     1     -21.003 -21.010 -14.434  1.00  0.00    +0.157 C 
BRANCH  16  17
ATOM     17  N   UNL     1     -22.273 -21.089 -15.161  1.00  0.00    -0.309 NA
ATOM     18  H   UNL     1     -22.070 -21.310 -16.136  1.00  0.00    +0.123 HD
BRANCH  17  19
ATOM     19  C   UNL     1     -23.178 -22.106 -14.611  1.00  0.00    +0.097 C 
BRANCH  19  20
ATOM     20  C   UNL     1     -24.546 -22.083 -15.278  1.00  0.00    +0.152 C 
BRANCH  20  21
ATOM     21  S   UNL     1     -24.913 -23.624 -16.100  1.00  0.00    +0.148 S 
ATOM     22  O   UNL     1     -24.019 -24.648 -15.597  1.00  0.00    -0.229 OA
ATOM     23  O   UNL     1     -25.000 -23.353 -17.523  1.00  0.00    -0.229 OA
ATOM     24  C   UNL     1     -26.556 -24.021 -15.547  1.00  0.00    +0.158 C 
ENDBRANCH  20  21
ENDBRANCH  19  20
ENDBRANCH  17  19
ENDBRANCH  16  17
ENDBRANCH  12  16
ENDBRANCH   1  11
BRANCH   8  25
ATOM     25  N   UNL     1     -22.164 -12.880 -11.531  1.00  0.00    -0.340 N 
ATOM     26  H   UNL     1     -22.097 -11.903 -11.261  1.00  0.00    +0.168 HD
BRANCH  25  27
ATOM     27  C   UNL     1     -22.087 -13.735 -10.408  1.00  0.00    +0.041 A 
ATOM     28  C   UNL     1     -23.165 -14.525  -9.987  1.00  0.00    +0.050 A 
ATOM     29  C   UNL     1     -20.849 -13.906  -9.768  1.00  0.00    +0.030 A 
ATOM     30  C   UNL     1     -23.033 -15.407  -8.910  1.00  0.00    +0.085 A 
ATOM     31  C   UNL     1     -20.709 -14.786  -8.691  1.00  0.00    +0.050 A 
ATOM     32  C   UNL     1     -21.809 -15.515  -8.246  1.00  0.00    +0.138 A 
ATOM     33 Cl   UNL     1     -24.398 -16.354  -8.442  1.00  0.00    -0.080 Cl
BRANCH  32  34
ATOM     34  O   UNL     1     -21.618 -16.382  -7.203  1.00  0.00    -0.487 OA
BRANCH  34  35
ATOM     35  C   UNL     1     -22.065 -17.704  -7.536  1.00  0.00    +0.265 C 
BRANCH  35  36
ATOM     36  C   UNL     1     -20.890 -18.552  -7.961  1.00  0.00    -0.008 A 
ATOM     37  C   UNL     1     -20.142 -18.219  -9.096  1.00  0.00    +0.046 A 
ATOM     38  C   UNL     1     -20.543 -19.701  -7.230  1.00  0.00    +0.007 A 
ATOM     39  C   UNL     1     -19.070 -19.019  -9.480  1.00  0.00    +0.123 A 
ATOM     40  C   UNL     1     -19.465 -20.497  -7.624  1.00  0.00    +0.003 A 
ATOM     41  C   UNL     1     -18.724 -20.153  -8.753  1.00  0.00    +0.039 A 
ATOM     42  F   UNL     1     -18.362 -18.694 -10.569  1.00  0.00    -0.207 F 
ENDBRANCH  35  36
ENDBRANCH  34  35
ENDBRANCH  32  34
ENDBRANCH  25  27
ENDBRANCH   8  25
TORSDOF 11
ENDMDL
MODEL 3
REMARK VINA RESULT:    -9.371      3.895      8.020
REMARK INTER + INTRA:         -18.212
REMARK INTER:                 -16.603
REMARK INTRA:                  -1.609
REMARK UNBOUND:                -2.814
REMARK SMILES CS(=O)(=O)CCNCc1ccc(-c2ccc3ncnc(Nc4ccc(OCc5cccc(F)c5)c(Cl)c4)c3c2)o1
REMARK SMILES IDX 13 1 14 2 15 3 16 4 17 5 18 6 19 7 20 8 38 9 39 10 12 11
REMARK SMILES IDX 9 12 10 13 40 14 11 15 8 16 7 17 6 19 5 20 2 21 3 22 4 23
REMARK SMILES IDX 1 24 21 25 22 27 37 28 23 29 35 30 24 31 25 32 36 33 26 34
REMARK SMILES IDX 27 35 28 36 34 37 29 38 32 39 30 40 31 41 33 42
REMARK H PARENT 7 18 21 26
ROOT
ATOM      1  C   UNL     1     -19.224 -17.433 -13.243  1.00  0.00    +0.018 A 
ATOM      2  C   UNL     1     -18.016 -16.792 -13.525  1.00  0.00    +0.014 A 
ATOM      3  C   UNL     1     -17.993 -15.455 -13.939  1.00  0.00    +0.030 A 
ATOM      4  C   UNL     1     -19.155 -14.710 -14.078  1.00  0.00    +0.076 A 
ATOM      5  N   UNL     1     -19.057 -13.444 -14.490  1.00  0.00    -0.236 NA
ATOM      6  C   UNL     1     -20.201 -12.764 -14.619  1.00  0.00    +0.224 A 
ATOM      7  N   UNL     1     -21.426 -13.228 -14.361  1.00  0.00    -0.219 NA
ATOM      8  C   UNL     1     -21.516 -14.500 -13.934  1.00  0.00    +0.141 A 
ATOM      9  C   UNL     1     -20.379 -15.321 -13.783  1.00  0.00    +0.044 A 
ATOM     10  C   UNL     1     -20.401 -16.685 -13.376  1.00  0.00    +0.026 A 
ENDROOT
BRANCH   1  11
ATOM     11  C   UNL     1     -19.267 -18.833 -12.829  1.00  0.00    +0.134 A 
ATOM     12  C   UNL     1     -19.172 -20.422 -11.302  1.00  0.00    +0.118 A 
ATOM     13  C   UNL     1     -19.388 -21.055 -12.507  1.00  0.00    +0.047 A 
ATOM     14  O   UNL     1     -19.091 -19.074 -11.494  1.00  0.00    -0.460 OA
ATOM     15  C   UNL     1     -19.452 -20.034 -13.487  1.00  0.00    +0.051 A 
BRANCH  12  16
ATOM     16  C   UNL     1     -19.005 -20.906  -9.905  1.00  0.00    +0.157 C 
BRANCH  16  17
ATOM     17  N   UNL     1     -18.684 -19.792  -9.008  1.00  0.00    -0.309 NA
ATOM     18  H   UNL     1     -18.610 -18.942  -9.568  1.00  0.00    +0.123 HD
BRANCH  17  19
ATOM     19  C   UNL     1     -19.696 -19.597  -7.962  1.00  0.00    +0.097 C 
BRANCH  19  20
ATOM     20  C   UNL     1     -20.913 -18.838  -8.471  1.00  0.00    +0.152 C 
BRANCH  20  21
ATOM     21  S   UNL     1     -20.605 -17.083  -8.588  1.00  0.00    +0.148 S 
ATOM     22  O   UNL     1     -19.207 -16.874  -8.908  1.00  0.00    -0.229 OA
ATOM     23  O   UNL     1     -21.198 -16.456  -7.422  1.00  0.00    -0.229 OA
ATOM     24  C   UNL     1     -21.565 -16.574  -9.996  1.00  0.00    +0.158 C 
ENDBRANCH  20  21
ENDBRANCH  19  20
ENDBRANCH  17  19
ENDBRANCH  16  17
ENDBRANCH  12  16
ENDBRANCH   1  11
BRANCH   8  25
ATOM     25  N   UNL     1     -22.794 -15.031 -13.598  1.00  0.00    -0.340 N 
ATOM     26  H   UNL     1     -23.501 -14.360 -13.882  1.00  0.00    +0.168 HD
BRANCH  25  27
ATOM     27  C   UNL     1     -23.250 -16.361 -13.752  1.00  0.00    +0.041 A 
ATOM     28  C   UNL     1     -24.011 -17.014 -12.772  1.00  0.00    +0.050 A 
ATOM     29  C   UNL     1     -23.053 -17.010 -14.981  1.00  0.00    +0.030 A 
ATOM     30  C   UNL     1     -24.498 -18.307 -12.985  1.00  0.00    +0.085 A 
ATOM     31  C   UNL     1     -23.537 -18.302 -15.201  1.00  0.00    +0.050 A 
ATOM     32  C   UNL     1     -24.236 -18.960 -14.191  1.00  0.00    +0.138 A 
ATOM     33 Cl   UNL     1     -25.431 -19.056 -11.740  1.00  0.00    -0.080 Cl
BRANCH  32  34
ATOM     34  O   UNL     1     -24.713 -20.215 -14.461  1.00  0.00    -0.487 OA
BRANCH  34  35
ATOM     35  C   UNL     1     -23.670 -21.079 -14.933  1.00  0.00    +0.265 C 
BRANCH  35  36
ATOM     36  C   UNL     1     -24.267 -22.352 -15.483  1.00  0.00    -0.008 A 
ATOM     37  C   UNL     1     -25.304 -22.307 -16.423  1.00  0.00    +0.046 A 
ATOM     38  C   UNL     1     -23.801 -23.602 -15.045  1.00  0.00    +0.007 A 
ATOM     39  C   UNL     1     -25.851 -23.490 -16.910  1.00  0.00    +0.123 A 
ATOM     40  C   UNL     1     -24.357 -24.784 -15.541  1.00  0.00    +0.003 A 
ATOM     41  C   UNL     1     -25.385 -24.727 -16.479  1.00  0.00    +0.039 A 
ATOM     42  F   UNL     1     -26.844 -23.436 -17.807  1.00  0.00    -0.207 F 
ENDBRANCH  35  36
ENDBRANCH  34  35
ENDBRANCH  32  34
ENDBRANCH  25  27
ENDBRANCH   8  25
TORSDOF 11
ENDMDL
MODEL 4
REMARK VINA RESULT:    -9.369      3.943      7.890
REMARK INTER + INTRA:         -18.208
REMARK INTER:                 -16.285
REMARK INTRA:                  -1.922
REMARK UNBOUND:                -2.814
REMARK SMILES CS(=O)(=O)CCNCc1ccc(-c2ccc3ncnc(Nc4ccc(OCc5cccc(F)c5)c(Cl)c4)c3c2)o1
REMARK SMILES IDX 13 1 14 2 15 3 16 4 17 5 18 6 19 7 20 8 38 9 39 10 12 11
REMARK SMILES IDX 9 12 10 13 40 14 11 15 8 16 7 17 6 19 5 20 2 21 3 22 4 23
REMARK SMILES IDX 1 24 21 25 22 27 37 28 23 29 35 30 24 31 25 32 36 33 26 34
REMARK SMILES IDX 27 35 28 36 34 37 29 38 32 39 30 40 31 41 33 42
REMARK H PARENT 7 18 21 26
ROOT
ATOM      1  C   UNL     1     -23.028 -13.114 -11.751  1.00  0.00    +0.018 A 
ATOM      2  C   UNL     1     -24.006 -12.140 -11.958  1.00  0.00    +0.014 A 
ATOM      3  C   UNL     1     -24.593 -11.970 -13.218  1.00  0.00    +0.030 A 
ATOM      4  C   UNL     1     -24.240 -12.757 -14.304  1.00  0.00    +0.076 A 
ATOM      5  N   UNL     1     -24.833 -12.528 -15.478  1.00  0.00    -0.236 NA
ATOM      6  C   UNL     1     -24.458 -13.303 -16.500  1.00  0.00    +0.224 A 
ATOM      7  N   UNL     1     -23.560 -14.290 -16.453  1.00  0.00    -0.219 NA
ATOM      8  C   UNL     1     -22.978 -14.524 -15.264  1.00  0.00    +0.141 A 
ATOM      9  C   UNL     1     -23.276 -13.755 -14.120  1.00  0.00    +0.044 A 
ATOM     10  C   UNL     1     -22.671 -13.917 -12.842  1.00  0.00    +0.026 A 
ENDROOT
BRANCH   1  11
ATOM     11  C   UNL     1     -22.392 -13.293 -10.448  1.00  0.00    +0.134 A 
ATOM     12  C   UNL     1     -21.880 -14.500  -8.674  1.00  0.00    +0.118 A 
ATOM     13  C   UNL     1     -21.311 -13.260  -8.477  1.00  0.00    +0.047 A 
ATOM     14  O   UNL     1     -22.543 -14.521  -9.865  1.00  0.00    -0.460 OA
ATOM     15  C   UNL     1     -21.638 -12.486  -9.618  1.00  0.00    +0.051 A 
BRANCH  12  16
ATOM     16  C   UNL     1     -21.919 -15.750  -7.867  1.00  0.00    +0.157 C 
BRANCH  16  17
ATOM     17  N   UNL     1     -22.193 -16.907  -8.724  1.00  0.00    -0.309 NA
ATOM     18  H   UNL     1     -22.766 -16.596  -9.508  1.00  0.00    +0.123 HD
BRANCH  17  19
ATOM     19  C   UNL     1     -20.969 -17.535  -9.236  1.00  0.00    +0.097 C 
BRANCH  19  20
ATOM     20  C   UNL     1     -20.662 -18.854  -8.542  1.00  0.00    +0.152 C 
BRANCH  20  21
ATOM     21  S   UNL     1     -18.978 -19.378  -8.818  1.00  0.00    +0.148 S 
ATOM     22  O   UNL     1     -18.604 -20.317  -7.779  1.00  0.00    -0.229 OA
ATOM     23  O   UNL     1     -18.184 -18.190  -9.061  1.00  0.00    -0.229 OA
ATOM     24  C   UNL     1     -19.057 -20.273 -10.353  1.00  0.00    +0.158 C 
ENDBRANCH  20  21
ENDBRANCH  19  20
ENDBRANCH  17  19
ENDBRANCH  16  17
ENDBRANCH  12  16
ENDBRANCH   1  11
BRANCH   8  25
ATOM     25  N   UNL     1     -22.049 -15.597 -15.145  1.00  0.00    -0.340 N 
ATOM     26  H   UNL     1     -21.235 -15.258 -14.641  1.00  0.00    +0.168 HD
BRANCH  25  27
ATOM     27  C   UNL     1     -22.319 -16.951 -14.842  1.00  0.00    +0.041 A 
ATOM     28  C   UNL     1     -23.597 -17.512 -14.975  1.00  0.00    +0.050 A 
ATOM     29  C   UNL     1     -21.250 -17.804 -14.526  1.00  0.00    +0.030 A 
ATOM     30  C   UNL     1     -23.815 -18.870 -14.727  1.00  0.00    +0.085 A 
ATOM     31  C   UNL     1     -21.460 -19.163 -14.277  1.00  0.00    +0.050 A 
ATOM     32  C   UNL     1     -22.748 -19.689 -14.352  1.00  0.00    +0.138 A 
ATOM     33 Cl   UNL     1     -25.412 -19.500 -14.912  1.00  0.00    -0.080 Cl
BRANCH  32  34
ATOM     34  O   UNL     1     -22.902 -21.031 -14.125  1.00  0.00    -0.487 OA
BRANCH  34  35
ATOM     35  C   UNL     1     -22.615 -21.796 -15.304  1.00  0.00    +0.265 C 
BRANCH  35  36
ATOM     36  C   UNL     1     -23.756 -22.741 -15.593  1.00  0.00    -0.008 A 
ATOM     37  C   UNL     1     -24.701 -22.439 -16.583  1.00  0.00    +0.046 A 
ATOM     38  C   UNL     1     -23.897 -23.930 -14.859  1.00  0.00    +0.007 A 
ATOM     39  C   UNL     1     -25.754 -23.316 -16.827  1.00  0.00    +0.123 A 
ATOM     40  C   UNL     1     -24.957 -24.803 -15.113  1.00  0.00    +0.003 A 
ATOM     41  C   UNL     1     -25.889 -24.495 -16.103  1.00  0.00    +0.039 A 
ATOM     42  F   UNL     1     -26.653 -23.018 -17.773  1.00  0.00    -0.207 F 
ENDBRANCH  35  36
ENDBRANCH  34  35
ENDBRANCH  32  34
ENDBRANCH  25  27
ENDBRANCH   8  25
TORSDOF 11
ENDMDL
MODEL 5
REMARK VINA RESULT:    -9.228      2.730      5.589
REMARK INTER + INTRA:         -17.976
REMARK INTER:                 -15.294
REMARK INTRA:                  -2.682
REMARK UNBOUND:                -2.814
REMARK SMILES CS(=O)(=O)CCNCc1ccc(-c2ccc3ncnc(Nc4ccc(OCc5cccc(F)c5)c(Cl)c4)c3c2)o1
REMARK SMILES IDX 13 1 14 2 15 3 16 4 17 5 18 6 19 7 20 8 38 9 39 10 12 11
REMARK SMILES IDX 9 12 10 13 40 14 11 15 8 16 7 17 6 19 5 20 2 21 3 22 4 23
REMARK SMILES IDX 1 24 21 25 22 27 37 28 23 29 35 30 24 31 25 32 36 33 26 34
REMARK SMILES IDX 27 35 28 36 34 37 29 38 32 39 30 40 31 41 33 42
REMARK H PARENT 7 18 21 26
ROOT
ATOM      1  C   UNL     1     -24.580 -16.700 -14.933  1.00  0.00    +0.018 A 
ATOM      2  C   UNL     1     -25.624 -15.954 -15.482  1.00  0.00    +0.014 A 
ATOM      3  C   UNL     1     -25.393 -14.679 -16.013  1.00  0.00    +0.030 A 
ATOM      4  C   UNL     1     -24.128 -14.109 -16.027  1.00  0.00    +0.076 A 
ATOM      5  N   UNL     1     -23.985 -12.884 -16.538  1.00  0.00    -0.236 NA
ATOM      6  C   UNL     1     -22.753 -12.368 -16.524  1.00  0.00    +0.224 A 
ATOM      7  N   UNL     1     -21.653 -12.967 -16.060  1.00  0.00    -0.219 NA
ATOM      8  C   UNL     1     -21.802 -14.206 -15.560  1.00  0.00    +0.141 A 
ATOM      9  C   UNL     1     -23.059 -14.843 -15.501  1.00  0.00    +0.044 A 
ATOM     10  C   UNL     1     -23.299 -16.133 -14.949  1.00  0.00    +0.026 A 
ENDROOT
BRANCH   1  11
ATOM     11  C   UNL     1     -24.807 -18.024 -14.358  1.00  0.00    +0.134 A 
ATOM     12  C   UNL     1     -24.805 -20.227 -14.466  1.00  0.00    +0.118 A 
ATOM     13  C   UNL     1     -25.244 -19.901 -13.201  1.00  0.00    +0.047 A 
ATOM     14  O   UNL     1     -24.547 -19.090 -15.174  1.00  0.00    -0.460 OA
ATOM     15  C   UNL     1     -25.243 -18.486 -13.130  1.00  0.00    +0.051 A 
BRANCH  12  16
ATOM     16  C   UNL     1     -24.587 -21.517 -15.175  1.00  0.00    +0.157 C 
BRANCH  16  17
ATOM     17  N   UNL     1     -23.187 -21.645 -15.592  1.00  0.00    -0.309 NA
ATOM     18  H   UNL     1     -22.926 -20.798 -16.096  1.00  0.00    +0.123 HD
BRANCH  17  19
ATOM     19  C   UNL     1     -22.274 -21.838 -14.459  1.00  0.00    +0.097 C 
BRANCH  19  20
ATOM     20  C   UNL     1     -21.457 -20.589 -14.158  1.00  0.00    +0.152 C 
BRANCH  20  21
ATOM     21  S   UNL     1     -19.716 -20.952 -14.002  1.00  0.00    +0.148 S 
ATOM     22  O   UNL     1     -19.003 -19.718 -13.737  1.00  0.00    -0.229 OA
ATOM     23  O   UNL     1     -19.342 -21.795 -15.122  1.00  0.00    -0.229 OA
ATOM     24  C   UNL     1     -19.620 -21.959 -12.540  1.00  0.00    +0.158 C 
ENDBRANCH  20  21
ENDBRANCH  19  20
ENDBRANCH  17  19
ENDBRANCH  16  17
ENDBRANCH  12  16
ENDBRANCH   1  11
BRANCH   8  25
ATOM     25  N   UNL     1     -20.654 -14.910 -15.097  1.00  0.00    -0.340 N 
ATOM     26  H   UNL     1     -19.848 -14.582 -15.619  1.00  0.00    +0.168 HD
BRANCH  25  27
ATOM     27  C   UNL     1     -20.313 -15.233 -13.764  1.00  0.00    +0.041 A 
ATOM     28  C   UNL     1     -20.851 -14.552 -12.662  1.00  0.00    +0.050 A 
ATOM     29  C   UNL     1     -19.512 -16.361 -13.520  1.00  0.00    +0.030 A 
ATOM     30  C   UNL     1     -20.539 -14.940 -11.356  1.00  0.00    +0.085 A 
ATOM     31  C   UNL     1     -19.197 -16.754 -12.217  1.00  0.00    +0.050 A 
ATOM     32  C   UNL     1     -19.689 -16.026 -11.136  1.00  0.00    +0.138 A 
ATOM     33 Cl   UNL     1     -21.236 -14.062 -10.042  1.00  0.00    -0.080 Cl
BRANCH  32  34
ATOM     34  O   UNL     1     -19.373 -16.464  -9.878  1.00  0.00    -0.487 OA
BRANCH  34  35
ATOM     35  C   UNL     1     -20.039 -17.698  -9.572  1.00  0.00    +0.265 C 
BRANCH  35  36
ATOM     36  C   UNL     1     -21.374 -17.416  -8.928  1.00  0.00    -0.008 A 
ATOM     37  C   UNL     1     -22.556 -17.476  -9.677  1.00  0.00    +0.046 A 
ATOM     38  C   UNL     1     -21.448 -17.070  -7.569  1.00  0.00    +0.007 A 
ATOM     39  C   UNL     1     -23.777 -17.200  -9.070  1.00  0.00    +0.123 A 
ATOM     40  C   UNL     1     -22.680 -16.796  -6.969  1.00  0.00    +0.003 A 
ATOM     41  C   UNL     1     -23.849 -16.863  -7.723  1.00  0.00    +0.039 A 
ATOM     42  F   UNL     1     -24.901 -17.258  -9.795  1.00  0.00    -0.207 F 
ENDBRANCH  35  36
ENDBRANCH  34  35
ENDBRANCH  32  34
ENDBRANCH  25  27
ENDBRANCH   8  25
TORSDOF 11
ENDMDL
MODEL 6
REMARK VINA RESULT:    -9.017      3.706      7.778
REMARK INTER + INTRA:         -17.630
REMARK INTER:                 -15.751
REMARK INTRA:                  -1.879
REMARK UNBOUND:                -2.814
REMARK SMILES CS(=O)(=O)CCNCc1ccc(-c2ccc3ncnc(Nc4ccc(OCc5cccc(F)c5)c(Cl)c4)c3c2)o1
REMARK SMILES IDX 13 1 14 2 15 3 16 4 17 5 18 6 19 7 20 8 38 9 39 10 12 11
REMARK SMILES IDX 9 12 10 13 40 14 11 15 8 16 7 17 6 19 5 20 2 21 3 22 4 23
REMARK SMILES IDX 1 24 21 25 22 27 37 28 23 29 35 30 24 31 25 32 36 33 26 34
REMARK SMILES IDX 27 35 28 36 34 37 29 38 32 39 30 40 31 41 33 42
REMARK H PARENT 7 18 21 26
ROOT
ATOM      1  C   UNL     1     -22.242 -14.394 -11.353  1.00  0.00    +0.018 A 
ATOM      2  C   UNL     1     -21.375 -13.305 -11.448  1.00  0.00    +0.014 A 
ATOM      3  C   UNL     1     -21.031 -12.768 -12.695  1.00  0.00    +0.030 A 
ATOM      4  C   UNL     1     -21.538 -13.282 -13.879  1.00  0.00    +0.076 A 
ATOM      5  N   UNL     1     -21.155 -12.727 -15.032  1.00  0.00    -0.236 NA
ATOM      6  C   UNL     1     -21.659 -13.258 -16.150  1.00  0.00    +0.224 A 
ATOM      7  N   UNL     1     -22.517 -14.279 -16.220  1.00  0.00    -0.219 NA
ATOM      8  C   UNL     1     -22.909 -14.823 -15.055  1.00  0.00    +0.141 A 
ATOM      9  C   UNL     1     -22.425 -14.362 -13.813  1.00  0.00    +0.044 A 
ATOM     10  C   UNL     1     -22.762 -14.915 -12.546  1.00  0.00    +0.026 A 
ENDROOT
BRANCH   1  11
ATOM     11  C   UNL     1     -22.597 -14.978 -10.062  1.00  0.00    +0.134 A 
ATOM     12  C   UNL     1     -22.089 -16.007  -8.178  1.00  0.00    +0.118 A 
ATOM     13  C   UNL     1     -23.449 -15.784  -8.144  1.00  0.00    +0.047 A 
ATOM     14  O   UNL     1     -21.570 -15.527  -9.344  1.00  0.00    -0.460 OA
ATOM     15  C   UNL     1     -23.775 -15.121  -9.352  1.00  0.00    +0.051 A 
BRANCH  12  16
ATOM     16  C   UNL     1     -21.132 -16.654  -7.240  1.00  0.00    +0.157 C 
BRANCH  16  17
ATOM     17  N   UNL     1     -21.253 -18.113  -7.304  1.00  0.00    -0.309 NA
ATOM     18  H   UNL     1     -22.245 -18.352  -7.306  1.00  0.00    +0.123 HD
BRANCH  17  19
ATOM     19  C   UNL     1     -20.615 -18.682  -8.497  1.00  0.00    +0.097 C 
BRANCH  19  20
ATOM     20  C   UNL     1     -19.442 -17.842  -8.981  1.00  0.00    +0.152 C 
BRANCH  20  21
ATOM     21  S   UNL     1     -19.176 -18.015 -10.738  1.00  0.00    +0.148 S 
ATOM     22  O   UNL     1     -17.903 -17.413 -11.079  1.00  0.00    -0.229 OA
ATOM     23  O   UNL     1     -20.394 -17.598 -11.408  1.00  0.00    -0.229 OA
ATOM     24  C   UNL     1     -19.027 -19.771 -10.976  1.00  0.00    +0.158 C 
ENDBRANCH  20  21
ENDBRANCH  19  20
ENDBRANCH  17  19
ENDBRANCH  16  17
ENDBRANCH  12  16
ENDBRANCH   1  11
BRANCH   8  25
ATOM     25  N   UNL     1     -23.860 -15.883 -15.069  1.00  0.00    -0.340 N 
ATOM     26  H   UNL     1     -24.526 -15.702 -15.814  1.00  0.00    +0.168 HD
BRANCH  25  27
ATOM     27  C   UNL     1     -23.621 -17.267 -14.911  1.00  0.00    +0.041 A 
ATOM     28  C   UNL     1     -22.343 -17.788 -14.665  1.00  0.00    +0.050 A 
ATOM     29  C   UNL     1     -24.716 -18.145 -14.863  1.00  0.00    +0.030 A 
ATOM     30  C   UNL     1     -22.154 -19.156 -14.451  1.00  0.00    +0.085 A 
ATOM     31  C   UNL     1     -24.534 -19.514 -14.650  1.00  0.00    +0.050 A 
ATOM     32  C   UNL     1     -23.249 -20.022 -14.471  1.00  0.00    +0.138 A 
ATOM     33 Cl   UNL     1     -20.555 -19.734 -14.150  1.00  0.00    -0.080 Cl
BRANCH  32  34
ATOM     34  O   UNL     1     -23.122 -21.366 -14.240  1.00  0.00    -0.487 OA
BRANCH  34  35
ATOM     35  C   UNL     1     -22.882 -22.084 -15.459  1.00  0.00    +0.265 C 
BRANCH  35  36
ATOM     36  C   UNL     1     -24.046 -22.998 -15.754  1.00  0.00    -0.008 A 
ATOM     37  C   UNL     1     -24.962 -22.685 -16.766  1.00  0.00    +0.046 A 
ATOM     38  C   UNL     1     -24.237 -24.170 -15.003  1.00  0.00    +0.007 A 
ATOM     39  C   UNL     1     -26.037 -23.533 -17.016  1.00  0.00    +0.123 A 
ATOM     40  C   UNL     1     -25.319 -25.014 -15.263  1.00  0.00    +0.003 A 
ATOM     41  C   UNL     1     -26.221 -24.695 -16.275  1.00  0.00    +0.039 A 
ATOM     42  F   UNL     1     -26.908 -23.224 -17.984  1.00  0.00    -0.207 F 
ENDBRANCH  35  36
ENDBRANCH  34  35
ENDBRANCH  32  34
ENDBRANCH  25  27
ENDBRANCH   8  25
TORSDOF 11
ENDMDL
MODEL 7
REMARK VINA RESULT:    -8.906      1.532      2.139
REMARK INTER + INTRA:         -17.447
REMARK INTER:                 -14.666
REMARK INTRA:                  -2.781
REMARK UNBOUND:                -2.814
REMARK SMILES CS(=O)(=O)CCNCc1ccc(-c2ccc3ncnc(Nc4ccc(OCc5cccc(F)c5)c(Cl)c4)c3c2)o1
REMARK SMILES IDX 13 1 14 2 15 3 16 4 17 5 18 6 19 7 20 8 38 9 39 10 12 11
REMARK SMILES IDX 9 12 10 13 40 14 11 15 8 16 7 17 6 19 5 20 2 21 3 22 4 23
REMARK SMILES IDX 1 24 21 25 22 27 37 28 23 29 35 30 24 31 25 32 36 33 26 34
REMARK SMILES IDX 27 35 28 36 34 37 29 38 32 39 30 40 31 41 33 42
REMARK H PARENT 7 18 21 26
ROOT
ATOM      1  C   UNL     1     -23.621 -18.986 -14.868  1.00  0.00    +0.018 A 
ATOM      2  C   UNL     1     -24.117 -20.262 -15.142  1.00  0.00    +0.014 A 
ATOM      3  C   UNL     1     -23.303 -21.392 -15.005  1.00  0.00    +0.030 A 
ATOM      4  C   UNL     1     -21.983 -21.300 -14.587  1.00  0.00    +0.076 A 
ATOM      5  N   UNL     1     -21.263 -22.420 -14.492  1.00  0.00    -0.236 NA
ATOM      6  C   UNL     1     -19.994 -22.286 -14.095  1.00  0.00    +0.224 A 
ATOM      7  N   UNL     1     -19.386 -21.142 -13.773  1.00  0.00    -0.219 NA
ATOM      8  C   UNL     1     -20.122 -20.019 -13.857  1.00  0.00    +0.141 A 
ATOM      9  C   UNL     1     -21.465 -20.035 -14.287  1.00  0.00    +0.044 A 
ATOM     10  C   UNL     1     -22.290 -18.886 -14.441  1.00  0.00    +0.026 A 
ENDROOT
BRANCH   1  11
ATOM     11  C   UNL     1     -24.450 -17.794 -15.024  1.00  0.00    +0.134 A 
ATOM     12  C   UNL     1     -24.730 -15.655 -15.488  1.00  0.00    +0.118 A 
ATOM     13  C   UNL     1     -25.979 -16.153 -15.184  1.00  0.00    +0.047 A 
ATOM     14  O   UNL     1     -23.799 -16.646 -15.384  1.00  0.00    -0.460 OA
ATOM     15  C   UNL     1     -25.800 -17.526 -14.889  1.00  0.00    +0.051 A 
BRANCH  12  16
ATOM     16  C   UNL     1     -24.228 -14.308 -15.873  1.00  0.00    +0.157 C 
BRANCH  16  17
ATOM     17  N   UNL     1     -22.837 -14.387 -16.329  1.00  0.00    -0.309 NA
ATOM     18  H   UNL     1     -22.832 -14.773 -17.273  1.00  0.00    +0.123 HD
BRANCH  17  19
ATOM     19  C   UNL     1     -22.169 -13.080 -16.336  1.00  0.00    +0.097 C 
BRANCH  19  20
ATOM     20  C   UNL     1     -20.927 -13.062 -15.457  1.00  0.00    +0.152 C 
BRANCH  20  21
ATOM     21  S   UNL     1     -21.314 -13.400 -13.747  1.00  0.00    +0.148 S 
ATOM     22  O   UNL     1     -21.617 -14.810 -13.606  1.00  0.00    -0.229 OA
ATOM     23  O   UNL     1     -22.259 -12.393 -13.304  1.00  0.00    -0.229 OA
ATOM     24  C   UNL     1     -19.785 -13.087 -12.894  1.00  0.00    +0.158 C 
ENDBRANCH  20  21
ENDBRANCH  19  20
ENDBRANCH  17  19
ENDBRANCH  16  17
ENDBRANCH  12  16
ENDBRANCH   1  11
BRANCH   8  25
ATOM     25  N   UNL     1     -19.538 -18.777 -13.478  1.00  0.00    -0.340 N 
ATOM     26  H   UNL     1     -19.770 -18.087 -14.187  1.00  0.00    +0.168 HD
BRANCH  25  27
ATOM     27  C   UNL     1     -19.488 -18.199 -12.189  1.00  0.00    +0.041 A 
ATOM     28  C   UNL     1     -19.199 -18.946 -11.038  1.00  0.00    +0.050 A 
ATOM     29  C   UNL     1     -19.596 -16.804 -12.064  1.00  0.00    +0.030 A 
ATOM     30  C   UNL     1     -19.095 -18.330  -9.789  1.00  0.00    +0.085 A 
ATOM     31  C   UNL     1     -19.492 -16.181 -10.818  1.00  0.00    +0.050 A 
ATOM     32  C   UNL     1     -19.269 -16.949  -9.677  1.00  0.00    +0.138 A 
ATOM     33 Cl   UNL     1     -18.735 -19.306  -8.411  1.00  0.00    -0.080 Cl
BRANCH  32  34
ATOM     34  O   UNL     1     -19.150 -16.292  -8.481  1.00  0.00    -0.487 OA
BRANCH  34  35
ATOM     35  C   UNL     1     -20.176 -15.301  -8.326  1.00  0.00    +0.265 C 
BRANCH  35  36
ATOM     36  C   UNL     1     -21.467 -15.961  -7.903  1.00  0.00    -0.008 A 
ATOM     37  C   UNL     1     -22.592 -15.930  -8.737  1.00  0.00    +0.046 A 
ATOM     38  C   UNL     1     -21.563 -16.600  -6.656  1.00  0.00    +0.007 A 
ATOM     39  C   UNL     1     -23.777 -16.531  -8.326  1.00  0.00    +0.123 A 
ATOM     40  C   UNL     1     -22.757 -17.203  -6.254  1.00  0.00    +0.003 A 
ATOM     41  C   UNL     1     -23.869 -17.169  -7.093  1.00  0.00    +0.039 A 
ATOM     42  F   UNL     1     -24.848 -16.495  -9.129  1.00  0.00    -0.207 F 
ENDBRANCH  35  36
ENDBRANCH  34  35
ENDBRANCH  32  34
ENDBRANCH  25  27
ENDBRANCH   8  25
TORSDOF 11
ENDMDL
MODEL 8
REMARK VINA RESULT:    -8.685      3.616      7.831
REMARK INTER + INTRA:         -17.084
REMARK INTER:                 -15.556
REMARK INTRA:                  -1.528
REMARK UNBOUND:                -2.814
REMARK SMILES CS(=O)(=O)CCNCc1ccc(-c2ccc3ncnc(Nc4ccc(OCc5cccc(F)c5)c(Cl)c4)c3c2)o1
REMARK SMILES IDX 13 1 14 2 15 3 16 4 17 5 18 6 19 7 20 8 38 9 39 10 12 11
REMARK SMILES IDX 9 12 10 13 40 14 11 15 8 16 7 17 6 19 5 20 2 21 3 22 4 23
REMARK SMILES IDX 1 24 21 25 22 27 37 28 23 29 35 30 24 31 25 32 36 33 26 34
REMARK SMILES IDX 27 35 28 36 34 37 29 38 32 39 30 40 31 41 33 42
REMARK H PARENT 7 18 21 26
ROOT
ATOM      1  C   UNL     1     -22.547 -13.799 -10.839  1.00  0.00    +0.018 A 
ATOM      2  C   UNL     1     -23.331 -12.660 -10.648  1.00  0.00    +0.014 A 
ATOM      3  C   UNL     1     -24.013 -12.072 -11.720  1.00  0.00    +0.030 A 
ATOM      4  C   UNL     1     -23.949 -12.592 -13.005  1.00  0.00    +0.076 A 
ATOM      5  N   UNL     1     -24.616 -11.970 -13.980  1.00  0.00    -0.236 NA
ATOM      6  C   UNL     1     -24.520 -12.498 -15.204  1.00  0.00    +0.224 A 
ATOM      7  N   UNL     1     -23.834 -13.594 -15.538  1.00  0.00    -0.219 NA
ATOM      8  C   UNL     1     -23.177 -14.224 -14.547  1.00  0.00    +0.141 A 
ATOM      9  C   UNL     1     -23.186 -13.745 -13.221  1.00  0.00    +0.044 A 
ATOM     10  C   UNL     1     -22.482 -14.333 -12.133  1.00  0.00    +0.026 A 
ENDROOT
BRANCH   1  11
ATOM     11  C   UNL     1     -21.814 -14.415  -9.736  1.00  0.00    +0.134 A 
ATOM     12  C   UNL     1     -21.053 -16.167  -8.633  1.00  0.00    +0.118 A 
ATOM     13  C   UNL     1     -20.622 -15.056  -7.940  1.00  0.00    +0.047 A 
ATOM     14  O   UNL     1     -21.783 -15.782  -9.718  1.00  0.00    -0.460 OA
ATOM     15  C   UNL     1     -21.108 -13.931  -8.650  1.00  0.00    +0.051 A 
BRANCH  12  16
ATOM     16  C   UNL     1     -20.895 -17.632  -8.423  1.00  0.00    +0.157 C 
BRANCH  16  17
ATOM     17  N   UNL     1     -19.477 -17.984  -8.297  1.00  0.00    -0.309 NA
ATOM     18  H   UNL     1     -19.413 -18.985  -8.111  1.00  0.00    +0.123 HD
BRANCH  17  19
ATOM     19  C   UNL     1     -18.705 -17.665  -9.503  1.00  0.00    +0.097 C 
BRANCH  19  20
ATOM     20  C   UNL     1     -18.899 -18.698 -10.604  1.00  0.00    +0.152 C 
BRANCH  20  21
ATOM     21  S   UNL     1     -19.046 -17.941 -12.213  1.00  0.00    +0.148 S 
ATOM     22  O   UNL     1     -18.947 -18.972 -13.227  1.00  0.00    -0.229 OA
ATOM     23  O   UNL     1     -18.159 -16.792 -12.239  1.00  0.00    -0.229 OA
ATOM     24  C   UNL     1     -20.709 -17.313 -12.239  1.00  0.00    +0.158 C 
ENDBRANCH  20  21
ENDBRANCH  19  20
ENDBRANCH  17  19
ENDBRANCH  16  17
ENDBRANCH  12  16
ENDBRANCH   1  11
BRANCH   8  25
ATOM     25  N   UNL     1     -22.470 -15.424 -14.838  1.00  0.00    -0.340 N 
ATOM     26  H   UNL     1     -21.490 -15.279 -14.612  1.00  0.00    +0.168 HD
BRANCH  25  27
ATOM     27  C   UNL     1     -22.871 -16.754 -14.574  1.00  0.00    +0.041 A 
ATOM     28  C   UNL     1     -23.974 -17.062 -13.765  1.00  0.00    +0.050 A 
ATOM     29  C   UNL     1     -22.231 -17.805 -15.251  1.00  0.00    +0.030 A 
ATOM     30  C   UNL     1     -24.379 -18.386 -13.577  1.00  0.00    +0.085 A 
ATOM     31  C   UNL     1     -22.631 -19.131 -15.068  1.00  0.00    +0.050 A 
ATOM     32  C   UNL     1     -23.689 -19.422 -14.210  1.00  0.00    +0.138 A 
ATOM     33 Cl   UNL     1     -25.747 -18.699 -12.570  1.00  0.00    -0.080 Cl
BRANCH  32  34
ATOM     34  O   UNL     1     -24.062 -20.734 -14.081  1.00  0.00    -0.487 OA
BRANCH  34  35
ATOM     35  C   UNL     1     -23.297 -21.581 -14.950  1.00  0.00    +0.265 C 
BRANCH  35  36
ATOM     36  C   UNL     1     -24.216 -22.523 -15.690  1.00  0.00    -0.008 A 
ATOM     37  C   UNL     1     -24.446 -23.819 -15.213  1.00  0.00    +0.046 A 
ATOM     38  C   UNL     1     -24.841 -22.115 -16.881  1.00  0.00    +0.007 A 
ATOM     39  C   UNL     1     -25.286 -24.678 -15.915  1.00  0.00    +0.123 A 
ATOM     40  C   UNL     1     -25.683 -22.985 -17.577  1.00  0.00    +0.003 A 
ATOM     41  C   UNL     1     -25.908 -24.272 -17.091  1.00  0.00    +0.039 A 
ATOM     42  F   UNL     1     -25.498 -25.916 -15.453  1.00  0.00    -0.207 F 
ENDBRANCH  35  36
ENDBRANCH  34  35
ENDBRANCH  32  34
ENDBRANCH  25  27
ENDBRANCH   8  25
TORSDOF 11
ENDMDL
MODEL 9
REMARK VINA RESULT:    -8.665      3.368      6.884
REMARK INTER + INTRA:         -17.052
REMARK INTER:                 -15.122
REMARK INTRA:                  -1.930
REMARK UNBOUND:                -2.814
REMARK SMILES CS(=O)(=O)CCNCc1ccc(-c2ccc3ncnc(Nc4ccc(OCc5cccc(F)c5)c(Cl)c4)c3c2)o1
REMARK SMILES IDX 13 1 14 2 15 3 16 4 17 5 18 6 19 7 20 8 38 9 39 10 12 11
REMARK SMILES IDX 9 12 10 13 40 14 11 15 8 16 7 17 6 19 5 20 2 21 3 22 4 23
REMARK SMILES IDX 1 24 21 25 22 27 37 28 23 29 35 30 24 31 25 32 36 33 26 34
REMARK SMILES IDX 27 35 28 36 34 37 29 38 32 39 30 40 31 41 33 42
REMARK H PARENT 7 18 21 26
ROOT
ATOM      1  C   UNL     1     -22.402 -13.797 -12.560  1.00  0.00    +0.018 A 
ATOM      2  C   UNL     1     -22.254 -12.560 -13.189  1.00  0.00    +0.014 A 
ATOM      3  C   UNL     1     -22.799 -12.331 -14.458  1.00  0.00    +0.030 A 
ATOM      4  C   UNL     1     -23.511 -13.308 -15.138  1.00  0.00    +0.076 A 
ATOM      5  N   UNL     1     -23.990 -13.022 -16.351  1.00  0.00    -0.236 NA
ATOM      6  C   UNL     1     -24.662 -13.994 -16.976  1.00  0.00    +0.224 A 
ATOM      7  N   UNL     1     -24.910 -15.215 -16.495  1.00  0.00    -0.219 NA
ATOM      8  C   UNL     1     -24.436 -15.491 -15.267  1.00  0.00    +0.141 A 
ATOM      9  C   UNL     1     -23.692 -14.552 -14.523  1.00  0.00    +0.044 A 
ATOM     10  C   UNL     1     -23.125 -14.787 -13.239  1.00  0.00    +0.026 A 
ENDROOT
BRANCH   1  11
ATOM     11  C   UNL     1     -21.824 -14.060 -11.245  1.00  0.00    +0.134 A 
ATOM     12  C   UNL     1     -20.517 -15.193  -9.876  1.00  0.00    +0.118 A 
ATOM     13  C   UNL     1     -21.110 -14.207  -9.118  1.00  0.00    +0.047 A 
ATOM     14  O   UNL     1     -20.954 -15.112 -11.165  1.00  0.00    -0.460 OA
ATOM     15  C   UNL     1     -21.947 -13.477  -9.997  1.00  0.00    +0.051 A 
BRANCH  12  16
ATOM     16  C   UNL     1     -19.553 -16.284  -9.567  1.00  0.00    +0.157 C 
BRANCH  16  17
ATOM     17  N   UNL     1     -19.903 -16.939  -8.304  1.00  0.00    -0.309 NA
ATOM     18  H   UNL     1     -20.349 -16.249  -7.699  1.00  0.00    +0.123 HD
BRANCH  17  19
ATOM     19  C   UNL     1     -20.808 -18.079  -8.489  1.00  0.00    +0.097 C 
BRANCH  19  20
ATOM     20  C   UNL     1     -21.619 -18.381  -7.237  1.00  0.00    +0.152 C 
BRANCH  20  21
ATOM     21  S   UNL     1     -22.671 -17.014  -6.776  1.00  0.00    +0.148 S 
ATOM     22  O   UNL     1     -21.843 -15.851  -6.527  1.00  0.00    -0.229 OA
ATOM     23  O   UNL     1     -23.596 -17.494  -5.767  1.00  0.00    -0.229 OA
ATOM     24  C   UNL     1     -23.624 -16.697  -8.244  1.00  0.00    +0.158 C 
ENDBRANCH  20  21
ENDBRANCH  19  20
ENDBRANCH  17  19
ENDBRANCH  16  17
ENDBRANCH  12  16
ENDBRANCH   1  11
BRANCH   8  25
ATOM     25  N   UNL     1     -24.712 -16.761 -14.686  1.00  0.00    -0.340 N 
ATOM     26  H   UNL     1     -25.666 -17.019 -14.924  1.00  0.00    +0.168 HD
BRANCH  25  27
ATOM     27  C   UNL     1     -23.868 -17.894 -14.631  1.00  0.00    +0.041 A 
ATOM     28  C   UNL     1     -24.344 -19.199 -14.816  1.00  0.00    +0.050 A 
ATOM     29  C   UNL     1     -22.481 -17.703 -14.522  1.00  0.00    +0.030 A 
ATOM     30  C   UNL     1     -23.470 -20.290 -14.817  1.00  0.00    +0.085 A 
ATOM     31  C   UNL     1     -21.601 -18.789 -14.523  1.00  0.00    +0.050 A 
ATOM     32  C   UNL     1     -22.100 -20.083 -14.644  1.00  0.00    +0.138 A 
ATOM     33 Cl   UNL     1     -24.120 -21.872 -15.052  1.00  0.00    -0.080 Cl
BRANCH  32  34
ATOM     34  O   UNL     1     -21.198 -21.114 -14.665  1.00  0.00    -0.487 OA
BRANCH  34  35
ATOM     35  C   UNL     1     -19.866 -20.647 -14.404  1.00  0.00    +0.265 C 
BRANCH  35  36
ATOM     36  C   UNL     1     -19.484 -20.955 -12.977  1.00  0.00    -0.008 A 
ATOM     37  C   UNL     1     -19.143 -19.926 -12.090  1.00  0.00    +0.046 A 
ATOM     38  C   UNL     1     -19.447 -22.284 -12.522  1.00  0.00    +0.007 A 
ATOM     39  C   UNL     1     -18.781 -20.229 -10.781  1.00  0.00    +0.123 A 
ATOM     40  C   UNL     1     -19.083 -22.576 -11.206  1.00  0.00    +0.003 A 
ATOM     41  C   UNL     1     -18.750 -21.544 -10.331  1.00  0.00    +0.039 A 
ATOM     42  F   UNL     1     -18.454 -19.238  -9.942  1.00  0.00    -0.207 F 
ENDBRANCH  35  36
ENDBRANCH  34  35
ENDBRANCH  32  34
ENDBRANCH  25  27
ENDBRANCH   8  25
TORSDOF 11
ENDMDL
