MODEL 1
REMARK VINA RESULT:    -9.303      0.000      0.000
REMARK INTER + INTRA:         -12.499
REMARK INTER:                 -11.478
REMARK INTRA:                  -1.021
REMARK UNBOUND:                -1.021
REMARK SMILES Fc1ccc(C2CCNC2COc2ccc3c(c2)OCO3)cc1
REMARK SMILES IDX 6 1 7 2 8 3 9 4 10 5 5 7 2 8 3 9 23 10 4 11 22 12 1 13 11 14
REMARK SMILES IDX 12 15 13 16 18 17 14 18 17 19 15 20 16 21 19 22 21 23 20 24
REMARK H PARENT 9 6
ROOT
ATOM      1  C   UNL     1     -21.116 -14.557 -10.050  1.00  0.00    +0.041 C 
ATOM      2  C   UNL     1     -21.530 -13.091 -10.159  1.00  0.00    +0.025 C 
ATOM      3  C   UNL     1     -20.988 -12.711 -11.523  1.00  0.00    +0.082 C 
ATOM      4  N   UNL     1     -21.312 -13.866 -12.354  1.00  0.00    -0.310 NA
ATOM      5  C   UNL     1     -21.241 -15.075 -11.500  1.00  0.00    +0.099 C 
ATOM      6  H   UNL     1     -20.694 -13.948 -13.161  1.00  0.00    +0.123 HD
ENDROOT
BRANCH   1   7
ATOM      7  C   UNL     1     -21.893 -15.359  -9.028  1.00  0.00    -0.043 A 
ATOM      8  C   UNL     1     -23.285 -16.863  -7.124  1.00  0.00    +0.123 A 
ATOM      9  C   UNL     1     -21.990 -16.440  -6.851  1.00  0.00    +0.039 A 
ATOM     10  C   UNL     1     -23.899 -16.547  -8.329  1.00  0.00    +0.039 A 
ATOM     11  C   UNL     1     -21.296 -15.690  -7.801  1.00  0.00    +0.007 A 
ATOM     12  C   UNL     1     -23.205 -15.797  -9.279  1.00  0.00    +0.007 A 
ATOM     13  F   UNL     1     -23.951 -17.584  -6.213  1.00  0.00    -0.207 F 
ENDBRANCH   1   7
BRANCH   5  14
ATOM     14  C   UNL     1     -20.071 -16.013 -11.859  1.00  0.00    +0.249 C 
BRANCH  14  15
ATOM     15  O   UNL     1     -19.361 -16.439 -10.693  1.00  0.00    -0.492 OA
BRANCH  15  16
ATOM     16  C   UNL     1     -19.228 -17.781 -10.461  1.00  0.00    +0.123 A 
ATOM     17  C   UNL     1     -19.277 -18.568 -11.619  1.00  0.00    +0.097 A 
ATOM     18  C   UNL     1     -19.064 -18.395  -9.205  1.00  0.00    +0.050 A 
ATOM     19  C   UNL     1     -19.156 -19.935 -11.486  1.00  0.00    +0.169 A 
ATOM     20  C   UNL     1     -18.944 -19.788  -9.099  1.00  0.00    +0.054 A 
ATOM     21  C   UNL     1     -18.992 -20.529 -10.259  1.00  0.00    +0.166 A 
ATOM     22  O   UNL     1     -19.179 -20.840 -12.502  1.00  0.00    -0.453 OA
ATOM     23  O   UNL     1     -18.893 -21.882 -10.344  1.00  0.00    -0.454 OA
ATOM     24  C   UNL     1     -19.016 -22.072 -11.769  1.00  0.00    +0.468 C 
ENDBRANCH  15  16
ENDBRANCH  14  15
ENDBRANCH   5  14
TORSDOF 4
ENDMDL
MODEL 2
REMARK VINA RESULT:    -9.081      1.334      2.270
REMARK INTER + INTRA:         -12.225
REMARK INTER:                 -11.328
REMARK INTRA:                  -0.897
REMARK UNBOUND:                -1.021
REMARK SMILES Fc1ccc(C2CCNC2COc2ccc3c(c2)OCO3)cc1
REMARK SMILES IDX 6 1 7 2 8 3 9 4 10 5 5 7 2 8 3 9 23 10 4 11 22 12 1 13 11 14
REMARK SMILES IDX 12 15 13 16 18 17 14 18 17 19 15 20 16 21 19 22 21 23 20 24
REMARK H PARENT 9 6
ROOT
ATOM      1  C   UNL     1     -22.245 -14.018 -10.129  1.00  0.00    +0.041 C 
ATOM      2  C   UNL     1     -23.445 -13.098 -10.349  1.00  0.00    +0.025 C 
ATOM      3  C   UNL     1     -23.214 -12.613 -11.768  1.00  0.00    +0.082 C 
ATOM      4  N   UNL     1     -22.780 -13.814 -12.474  1.00  0.00    -0.310 NA
ATOM      5  C   UNL     1     -22.020 -14.654 -11.519  1.00  0.00    +0.099 C 
ATOM      6  H   UNL     1     -22.223 -13.597 -13.300  1.00  0.00    +0.123 HD
ENDROOT
BRANCH   1   7
ATOM      7  C   UNL     1     -22.411 -15.014  -9.003  1.00  0.00    -0.043 A 
ATOM      8  C   UNL     1     -22.768 -16.848  -6.921  1.00  0.00    +0.123 A 
ATOM      9  C   UNL     1     -23.771 -16.680  -7.866  1.00  0.00    +0.039 A 
ATOM     10  C   UNL     1     -21.588 -16.119  -6.996  1.00  0.00    +0.039 A 
ATOM     11  C   UNL     1     -23.594 -15.766  -8.905  1.00  0.00    +0.007 A 
ATOM     12  C   UNL     1     -21.410 -15.204  -8.035  1.00  0.00    +0.007 A 
ATOM     13  F   UNL     1     -22.940 -17.725  -5.923  1.00  0.00    -0.207 F 
ENDBRANCH   1   7
BRANCH   5  14
ATOM     14  C   UNL     1     -20.517 -14.751 -11.850  1.00  0.00    +0.249 C 
BRANCH  14  15
ATOM     15  O   UNL     1     -20.244 -15.828 -12.750  1.00  0.00    -0.492 OA
BRANCH  15  16
ATOM     16  C   UNL     1     -19.867 -17.037 -12.232  1.00  0.00    +0.123 A 
ATOM     17  C   UNL     1     -19.881 -17.087 -10.832  1.00  0.00    +0.097 A 
ATOM     18  C   UNL     1     -19.474 -18.171 -12.968  1.00  0.00    +0.050 A 
ATOM     19  C   UNL     1     -19.512 -18.263 -10.216  1.00  0.00    +0.169 A 
ATOM     20  C   UNL     1     -19.103 -19.354 -12.315  1.00  0.00    +0.054 A 
ATOM     21  C   UNL     1     -19.134 -19.369 -10.938  1.00  0.00    +0.166 A 
ATOM     22  O   UNL     1     -19.472 -18.482  -8.874  1.00  0.00    -0.453 OA
ATOM     23  O   UNL     1     -18.808 -20.423 -10.145  1.00  0.00    -0.454 OA
ATOM     24  C   UNL     1     -19.022 -19.852  -8.837  1.00  0.00    +0.468 C 
ENDBRANCH  15  16
ENDBRANCH  14  15
ENDBRANCH   5  14
TORSDOF 4
ENDMDL
MODEL 3
REMARK VINA RESULT:    -8.860      1.937      2.829
REMARK INTER + INTRA:         -11.953
REMARK INTER:                 -11.063
REMARK INTRA:                  -0.890
REMARK UNBOUND:                -1.021
REMARK SMILES Fc1ccc(C2CCNC2COc2ccc3c(c2)OCO3)cc1
REMARK SMILES IDX 6 1 7 2 8 3 9 4 10 5 5 7 2 8 3 9 23 10 4 11 22 12 1 13 11 14
REMARK SMILES IDX 12 15 13 16 18 17 14 18 17 19 15 20 16 21 19 22 21 23 20 24
REMARK H PARENT 9 6
ROOT
ATOM      1  C   UNL     1     -21.924 -14.885 -12.870  1.00  0.00    +0.041 C 
ATOM      2  C   UNL     1     -22.937 -14.456 -13.930  1.00  0.00    +0.025 C 
ATOM      3  C   UNL     1     -22.131 -14.589 -15.208  1.00  0.00    +0.082 C 
ATOM      4  N   UNL     1     -21.403 -15.840 -15.025  1.00  0.00    -0.310 NA
ATOM      5  C   UNL     1     -21.105 -15.986 -13.580  1.00  0.00    +0.099 C 
ATOM      6  H   UNL     1     -20.550 -15.877 -15.583  1.00  0.00    +0.123 HD
ENDROOT
BRANCH   1   7
ATOM      7  C   UNL     1     -22.531 -15.308 -11.551  1.00  0.00    -0.043 A 
ATOM      8  C   UNL     1     -23.621 -16.060  -9.086  1.00  0.00    +0.123 A 
ATOM      9  C   UNL     1     -23.118 -14.776  -9.251  1.00  0.00    +0.039 A 
ATOM     10  C   UNL     1     -23.591 -16.976 -10.129  1.00  0.00    +0.039 A 
ATOM     11  C   UNL     1     -22.575 -14.400 -10.480  1.00  0.00    +0.007 A 
ATOM     12  C   UNL     1     -23.047 -16.601 -11.359  1.00  0.00    +0.007 A 
ATOM     13  F   UNL     1     -24.141 -16.420  -7.905  1.00  0.00    -0.207 F 
ENDBRANCH   1   7
BRANCH   5  14
ATOM     14  C   UNL     1     -19.604 -15.865 -13.248  1.00  0.00    +0.249 C 
BRANCH  14  15
ATOM     15  O   UNL     1     -18.894 -17.062 -13.578  1.00  0.00    -0.492 OA
BRANCH  15  16
ATOM     16  C   UNL     1     -18.967 -18.125 -12.720  1.00  0.00    +0.123 A 
ATOM     17  C   UNL     1     -18.800 -17.784 -11.372  1.00  0.00    +0.097 A 
ATOM     18  C   UNL     1     -19.177 -19.470 -13.080  1.00  0.00    +0.050 A 
ATOM     19  C   UNL     1     -18.854 -18.790 -10.431  1.00  0.00    +0.169 A 
ATOM     20  C   UNL     1     -19.227 -20.473 -12.103  1.00  0.00    +0.054 A 
ATOM     21  C   UNL     1     -19.063 -20.100 -10.787  1.00  0.00    +0.166 A 
ATOM     22  O   UNL     1     -18.715 -18.633  -9.087  1.00  0.00    -0.453 OA
ATOM     23  O   UNL     1     -19.082 -20.934  -9.714  1.00  0.00    -0.454 OA
ATOM     24  C   UNL     1     -18.857 -19.997  -8.640  1.00  0.00    +0.468 C 
ENDBRANCH  15  16
ENDBRANCH  14  15
ENDBRANCH   5  14
TORSDOF 4
ENDMDL
MODEL 4
REMARK VINA RESULT:    -8.849      1.664      2.292
REMARK INTER + INTRA:         -11.939
REMARK INTER:                 -10.846
REMARK INTRA:                  -1.092
REMARK UNBOUND:                -1.021
REMARK SMILES Fc1ccc(C2CCNC2COc2ccc3c(c2)OCO3)cc1
REMARK SMILES IDX 6 1 7 2 8 3 9 4 10 5 5 7 2 8 3 9 23 10 4 11 22 12 1 13 11 14
REMARK SMILES IDX 12 15 13 16 18 17 14 18 17 19 15 20 16 21 19 22 21 23 20 24
REMARK H PARENT 9 6
ROOT
ATOM      1  C   UNL     1     -21.037 -14.494 -12.944  1.00  0.00    +0.041 C 
ATOM      2  C   UNL     1     -21.677 -13.331 -13.700  1.00  0.00    +0.025 C 
ATOM      3  C   UNL     1     -21.061 -13.475 -15.078  1.00  0.00    +0.082 C 
ATOM      4  N   UNL     1     -21.095 -14.914 -15.320  1.00  0.00    -0.310 NA
ATOM      5  C   UNL     1     -20.915 -15.598 -14.017  1.00  0.00    +0.099 C 
ATOM      6  H   UNL     1     -20.388 -15.210 -15.993  1.00  0.00    +0.123 HD
ENDROOT
BRANCH   1   7
ATOM      7  C   UNL     1     -21.775 -14.915 -11.692  1.00  0.00    -0.043 A 
ATOM      8  C   UNL     1     -23.104 -15.670  -9.349  1.00  0.00    +0.123 A 
ATOM      9  C   UNL     1     -22.442 -14.450  -9.399  1.00  0.00    +0.039 A 
ATOM     10  C   UNL     1     -23.116 -16.521 -10.446  1.00  0.00    +0.039 A 
ATOM     11  C   UNL     1     -21.779 -14.073 -10.568  1.00  0.00    +0.007 A 
ATOM     12  C   UNL     1     -22.453 -16.144 -11.615  1.00  0.00    +0.007 A 
ATOM     13  F   UNL     1     -23.738 -16.032  -8.226  1.00  0.00    -0.207 F 
ENDBRANCH   1   7
BRANCH   5  14
ATOM     14  C   UNL     1     -19.573 -16.346 -13.897  1.00  0.00    +0.249 C 
BRANCH  14  15
ATOM     15  O   UNL     1     -19.029 -16.245 -12.578  1.00  0.00    -0.492 OA
BRANCH  15  16
ATOM     16  C   UNL     1     -18.981 -17.369 -11.800  1.00  0.00    +0.123 A 
ATOM     17  C   UNL     1     -19.069 -18.566 -12.523  1.00  0.00    +0.097 A 
ATOM     18  C   UNL     1     -18.867 -17.406 -10.398  1.00  0.00    +0.050 A 
ATOM     19  C   UNL     1     -19.033 -19.755 -11.825  1.00  0.00    +0.169 A 
ATOM     20  C   UNL     1     -18.834 -18.629  -9.714  1.00  0.00    +0.054 A 
ATOM     21  C   UNL     1     -18.917 -19.786 -10.457  1.00  0.00    +0.166 A 
ATOM     22  O   UNL     1     -19.104 -21.000 -12.368  1.00  0.00    -0.453 OA
ATOM     23  O   UNL     1     -18.902 -21.052  -9.964  1.00  0.00    -0.454 OA
ATOM     24  C   UNL     1     -19.024 -21.817 -11.181  1.00  0.00    +0.468 C 
ENDBRANCH  15  16
ENDBRANCH  14  15
ENDBRANCH   5  14
TORSDOF 4
ENDMDL
MODEL 5
REMARK VINA RESULT:    -8.807      3.829      4.823
REMARK INTER + INTRA:         -11.887
REMARK INTER:                 -10.831
REMARK INTRA:                  -1.056
REMARK UNBOUND:                -1.021
REMARK SMILES Fc1ccc(C2CCNC2COc2ccc3c(c2)OCO3)cc1
REMARK SMILES IDX 6 1 7 2 8 3 9 4 10 5 5 7 2 8 3 9 23 10 4 11 22 12 1 13 11 14
REMARK SMILES IDX 12 15 13 16 18 17 14 18 17 19 15 20 16 21 19 22 21 23 20 24
REMARK H PARENT 9 6
ROOT
ATOM      1  C   UNL     1     -22.532 -15.967 -14.186  1.00  0.00    +0.041 C 
ATOM      2  C   UNL     1     -23.257 -14.948 -15.062  1.00  0.00    +0.025 C 
ATOM      3  C   UNL     1     -22.203 -13.869 -15.227  1.00  0.00    +0.082 C 
ATOM      4  N   UNL     1     -20.973 -14.623 -15.446  1.00  0.00    -0.310 NA
ATOM      5  C   UNL     1     -21.068 -15.883 -14.671  1.00  0.00    +0.099 C 
ATOM      6  H   UNL     1     -20.142 -14.091 -15.186  1.00  0.00    +0.123 HD
ENDROOT
BRANCH   1   7
ATOM      7  C   UNL     1     -23.123 -17.360 -14.217  1.00  0.00    -0.043 A 
ATOM      8  C   UNL     1     -24.193 -19.943 -14.319  1.00  0.00    +0.123 A 
ATOM      9  C   UNL     1     -22.965 -19.685 -14.915  1.00  0.00    +0.039 A 
ATOM     10  C   UNL     1     -24.896 -18.936 -13.671  1.00  0.00    +0.039 A 
ATOM     11  C   UNL     1     -22.431 -18.397 -14.864  1.00  0.00    +0.007 A 
ATOM     12  C   UNL     1     -24.362 -17.647 -13.620  1.00  0.00    +0.007 A 
ATOM     13  F   UNL     1     -24.706 -21.179 -14.369  1.00  0.00    -0.207 F 
ENDBRANCH   1   7
BRANCH   5  14
ATOM     14  C   UNL     1     -20.084 -15.949 -13.486  1.00  0.00    +0.249 C 
BRANCH  14  15
ATOM     15  O   UNL     1     -19.069 -16.934 -13.699  1.00  0.00    -0.492 OA
BRANCH  15  16
ATOM     16  C   UNL     1     -19.098 -18.079 -12.949  1.00  0.00    +0.123 A 
ATOM     17  C   UNL     1     -18.941 -17.864 -11.574  1.00  0.00    +0.097 A 
ATOM     18  C   UNL     1     -19.255 -19.389 -13.439  1.00  0.00    +0.050 A 
ATOM     19  C   UNL     1     -18.953 -18.958 -10.736  1.00  0.00    +0.169 A 
ATOM     20  C   UNL     1     -19.262 -20.484 -12.564  1.00  0.00    +0.054 A 
ATOM     21  C   UNL     1     -19.111 -20.235 -11.218  1.00  0.00    +0.166 A 
ATOM     22  O   UNL     1     -18.817 -18.927  -9.382  1.00  0.00    -0.453 OA
ATOM     23  O   UNL     1     -19.093 -21.169 -10.231  1.00  0.00    -0.454 OA
ATOM     24  C   UNL     1     -18.904 -20.333  -9.071  1.00  0.00    +0.468 C 
ENDBRANCH  15  16
ENDBRANCH  14  15
ENDBRANCH   5  14
TORSDOF 4
ENDMDL
MODEL 6
REMARK VINA RESULT:    -8.342      3.875      5.426
REMARK INTER + INTRA:         -11.314
REMARK INTER:                 -10.656
REMARK INTRA:                  -0.658
REMARK UNBOUND:                -1.021
REMARK SMILES Fc1ccc(C2CCNC2COc2ccc3c(c2)OCO3)cc1
REMARK SMILES IDX 6 1 7 2 8 3 9 4 10 5 5 7 2 8 3 9 23 10 4 11 22 12 1 13 11 14
REMARK SMILES IDX 12 15 13 16 18 17 14 18 17 19 15 20 16 21 19 22 21 23 20 24
REMARK H PARENT 9 6
ROOT
ATOM      1  C   UNL     1     -22.273 -14.949 -13.259  1.00  0.00    +0.041 C 
ATOM      2  C   UNL     1     -22.727 -14.343 -11.933  1.00  0.00    +0.025 C 
ATOM      3  C   UNL     1     -21.619 -14.777 -10.993  1.00  0.00    +0.082 C 
ATOM      4  N   UNL     1     -20.406 -14.575 -11.777  1.00  0.00    -0.310 NA
ATOM      5  C   UNL     1     -20.733 -14.837 -13.198  1.00  0.00    +0.099 C 
ATOM      6  H   UNL     1     -19.637 -15.167 -11.460  1.00  0.00    +0.123 HD
ENDROOT
BRANCH   1   7
ATOM      7  C   UNL     1     -22.899 -14.325 -14.487  1.00  0.00    -0.043 A 
ATOM      8  C   UNL     1     -24.079 -13.215 -16.767  1.00  0.00    +0.123 A 
ATOM      9  C   UNL     1     -24.762 -14.185 -16.045  1.00  0.00    +0.039 A 
ATOM     10  C   UNL     1     -22.819 -12.787 -16.373  1.00  0.00    +0.039 A 
ATOM     11  C   UNL     1     -24.174 -14.739 -14.907  1.00  0.00    +0.007 A 
ATOM     12  C   UNL     1     -22.229 -13.341 -15.235  1.00  0.00    +0.007 A 
ATOM     13  F   UNL     1     -24.644 -12.684 -17.860  1.00  0.00    -0.207 F 
ENDBRANCH   1   7
BRANCH   5  14
ATOM     14  C   UNL     1     -20.060 -16.105 -13.759  1.00  0.00    +0.249 C 
BRANCH  14  15
ATOM     15  O   UNL     1     -18.948 -16.511 -12.957  1.00  0.00    -0.492 OA
BRANCH  15  16
ATOM     16  C   UNL     1     -18.991 -17.736 -12.349  1.00  0.00    +0.123 A 
ATOM     17  C   UNL     1     -18.870 -17.686 -10.954  1.00  0.00    +0.097 A 
ATOM     18  C   UNL     1     -19.130 -18.980 -12.994  1.00  0.00    +0.050 A 
ATOM     19  C   UNL     1     -18.897 -18.872 -10.252  1.00  0.00    +0.169 A 
ATOM     20  C   UNL     1     -19.155 -20.171 -12.255  1.00  0.00    +0.054 A 
ATOM     21  C   UNL     1     -19.038 -20.083 -10.886  1.00  0.00    +0.166 A 
ATOM     22  O   UNL     1     -18.795 -19.002  -8.902  1.00  0.00    -0.453 OA
ATOM     23  O   UNL     1     -19.041 -21.128 -10.017  1.00  0.00    -0.454 OA
ATOM     24  C   UNL     1     -18.883 -20.435  -8.761  1.00  0.00    +0.468 C 
ENDBRANCH  15  16
ENDBRANCH  14  15
ENDBRANCH   5  14
TORSDOF 4
ENDMDL
MODEL 7
REMARK VINA RESULT:    -8.125      3.898      5.390
REMARK INTER + INTRA:         -11.046
REMARK INTER:                 -10.501
REMARK INTRA:                  -0.545
REMARK UNBOUND:                -1.021
REMARK SMILES Fc1ccc(C2CCNC2COc2ccc3c(c2)OCO3)cc1
REMARK SMILES IDX 6 1 7 2 8 3 9 4 10 5 5 7 2 8 3 9 23 10 4 11 22 12 1 13 11 14
REMARK SMILES IDX 12 15 13 16 18 17 14 18 17 19 15 20 16 21 19 22 21 23 20 24
REMARK H PARENT 9 6
ROOT
ATOM      1  C   UNL     1     -22.911 -13.611 -12.519  1.00  0.00    +0.041 C 
ATOM      2  C   UNL     1     -23.556 -12.476 -11.725  1.00  0.00    +0.025 C 
ATOM      3  C   UNL     1     -22.637 -12.372 -10.523  1.00  0.00    +0.082 C 
ATOM      4  N   UNL     1     -21.303 -12.505 -11.099  1.00  0.00    -0.310 NA
ATOM      5  C   UNL     1     -21.400 -13.414 -12.266  1.00  0.00    +0.099 C 
ATOM      6  H   UNL     1     -20.621 -12.846 -10.422  1.00  0.00    +0.123 HD
ENDROOT
BRANCH   1   7
ATOM      7  C   UNL     1     -23.300 -13.659 -13.981  1.00  0.00    -0.043 A 
ATOM      8  C   UNL     1     -24.042 -13.703 -16.678  1.00  0.00    +0.123 A 
ATOM      9  C   UNL     1     -23.739 -12.492 -16.070  1.00  0.00    +0.039 A 
ATOM     10  C   UNL     1     -23.980 -14.894 -15.966  1.00  0.00    +0.039 A 
ATOM     11  C   UNL     1     -23.369 -12.469 -14.724  1.00  0.00    +0.007 A 
ATOM     12  C   UNL     1     -23.610 -14.872 -14.620  1.00  0.00    +0.007 A 
ATOM     13  F   UNL     1     -24.398 -13.724 -17.969  1.00  0.00    -0.207 F 
ENDBRANCH   1   7
BRANCH   5  14
ATOM     14  C   UNL     1     -20.691 -14.766 -12.051  1.00  0.00    +0.249 C 
BRANCH  14  15
ATOM     15  O   UNL     1     -21.037 -15.348 -10.791  1.00  0.00    -0.492 OA
BRANCH  15  16
ATOM     16  C   UNL     1     -20.357 -16.460 -10.374  1.00  0.00    +0.123 A 
ATOM     17  C   UNL     1     -20.984 -17.155  -9.332  1.00  0.00    +0.097 A 
ATOM     18  C   UNL     1     -19.130 -16.924 -10.884  1.00  0.00    +0.050 A 
ATOM     19  C   UNL     1     -20.372 -18.288  -8.840  1.00  0.00    +0.169 A 
ATOM     20  C   UNL     1     -18.530 -18.079 -10.365  1.00  0.00    +0.054 A 
ATOM     21  C   UNL     1     -19.177 -18.739  -9.344  1.00  0.00    +0.166 A 
ATOM     22  O   UNL     1     -20.844 -19.078  -7.838  1.00  0.00    -0.453 OA
ATOM     23  O   UNL     1     -18.744 -19.868  -8.724  1.00  0.00    -0.454 OA
ATOM     24  C   UNL     1     -19.804 -20.075  -7.768  1.00  0.00    +0.468 C 
ENDBRANCH  15  16
ENDBRANCH  14  15
ENDBRANCH   5  14
TORSDOF 4
ENDMDL
MODEL 8
REMARK VINA RESULT:    -8.064      4.127      5.857
REMARK INTER + INTRA:         -10.970
REMARK INTER:                  -9.470
REMARK INTRA:                  -1.500
REMARK UNBOUND:                -1.021
REMARK SMILES Fc1ccc(C2CCNC2COc2ccc3c(c2)OCO3)cc1
REMARK SMILES IDX 6 1 7 2 8 3 9 4 10 5 5 7 2 8 3 9 23 10 4 11 22 12 1 13 11 14
REMARK SMILES IDX 12 15 13 16 18 17 14 18 17 19 15 20 16 21 19 22 21 23 20 24
REMARK H PARENT 9 6
ROOT
ATOM      1  C   UNL     1     -24.287 -14.416 -15.284  1.00  0.00    +0.041 C 
ATOM      2  C   UNL     1     -24.511 -14.098 -16.761  1.00  0.00    +0.025 C 
ATOM      3  C   UNL     1     -24.250 -12.605 -16.804  1.00  0.00    +0.082 C 
ATOM      4  N   UNL     1     -23.078 -12.437 -15.951  1.00  0.00    -0.310 NA
ATOM      5  C   UNL     1     -23.148 -13.456 -14.877  1.00  0.00    +0.099 C 
ATOM      6  H   UNL     1     -23.013 -11.496 -15.564  1.00  0.00    +0.123 HD
ENDROOT
BRANCH   1   7
ATOM      7  C   UNL     1     -24.014 -15.874 -14.985  1.00  0.00    -0.043 A 
ATOM      8  C   UNL     1     -23.554 -18.572 -14.406  1.00  0.00    +0.123 A 
ATOM      9  C   UNL     1     -24.857 -18.114 -14.548  1.00  0.00    +0.039 A 
ATOM     10  C   UNL     1     -22.475 -17.709 -14.549  1.00  0.00    +0.039 A 
ATOM     11  C   UNL     1     -25.088 -16.769 -14.837  1.00  0.00    +0.007 A 
ATOM     12  C   UNL     1     -22.705 -16.363 -14.838  1.00  0.00    +0.007 A 
ATOM     13  F   UNL     1     -23.333 -19.864 -14.128  1.00  0.00    -0.207 F 
ENDBRANCH   1   7
BRANCH   5  14
ATOM     14  C   UNL     1     -23.396 -12.857 -13.479  1.00  0.00    +0.249 C 
BRANCH  14  15
ATOM     15  O   UNL     1     -22.214 -12.885 -12.675  1.00  0.00    -0.492 OA
BRANCH  15  16
ATOM     16  C   UNL     1     -21.777 -14.089 -12.194  1.00  0.00    +0.123 A 
ATOM     17  C   UNL     1     -20.469 -14.415 -12.574  1.00  0.00    +0.097 A 
ATOM     18  C   UNL     1     -22.515 -14.982 -11.394  1.00  0.00    +0.050 A 
ATOM     19  C   UNL     1     -19.941 -15.613 -12.141  1.00  0.00    +0.169 A 
ATOM     20  C   UNL     1     -21.954 -16.193 -10.968  1.00  0.00    +0.054 A 
ATOM     21  C   UNL     1     -20.664 -16.478 -11.357  1.00  0.00    +0.166 A 
ATOM     22  O   UNL     1     -18.693 -16.079 -12.415  1.00  0.00    -0.453 OA
ATOM     23  O   UNL     1     -19.965 -17.600 -11.039  1.00  0.00    -0.454 OA
ATOM     24  C   UNL     1     -18.718 -17.341 -11.716  1.00  0.00    +0.468 C 
ENDBRANCH  15  16
ENDBRANCH  14  15
ENDBRANCH   5  14
TORSDOF 4
ENDMDL
MODEL 9
REMARK VINA RESULT:    -7.945      4.102      5.777
REMARK INTER + INTRA:         -10.824
REMARK INTER:                  -9.610
REMARK INTRA:                  -1.214
REMARK UNBOUND:                -1.021
REMARK SMILES Fc1ccc(C2CCNC2COc2ccc3c(c2)OCO3)cc1
REMARK SMILES IDX 6 1 7 2 8 3 9 4 10 5 5 7 2 8 3 9 23 10 4 11 22 12 1 13 11 14
REMARK SMILES IDX 12 15 13 16 18 17 14 18 17 19 15 20 16 21 19 22 21 23 20 24
REMARK H PARENT 9 6
ROOT
ATOM      1  C   UNL     1     -23.948 -14.440 -15.144  1.00  0.00    +0.041 C 
ATOM      2  C   UNL     1     -24.650 -14.095 -16.456  1.00  0.00    +0.025 C 
ATOM      3  C   UNL     1     -24.218 -12.658 -16.677  1.00  0.00    +0.082 C 
ATOM      4  N   UNL     1     -22.804 -12.667 -16.316  1.00  0.00    -0.310 NA
ATOM      5  C   UNL     1     -22.617 -13.662 -15.233  1.00  0.00    +0.099 C 
ATOM      6  H   UNL     1     -22.471 -11.746 -16.033  1.00  0.00    +0.123 HD
ENDROOT
BRANCH   1   7
ATOM      7  C   UNL     1     -23.792 -15.922 -14.882  1.00  0.00    -0.043 A 
ATOM      8  C   UNL     1     -23.458 -18.661 -14.423  1.00  0.00    +0.123 A 
ATOM      9  C   UNL     1     -22.342 -17.839 -14.505  1.00  0.00    +0.039 A 
ATOM     10  C   UNL     1     -24.738 -18.142 -14.564  1.00  0.00    +0.039 A 
ATOM     11  C   UNL     1     -22.508 -16.472 -14.734  1.00  0.00    +0.007 A 
ATOM     12  C   UNL     1     -24.905 -16.775 -14.793  1.00  0.00    +0.007 A 
ATOM     13  F   UNL     1     -23.297 -19.973 -14.204  1.00  0.00    -0.207 F 
ENDBRANCH   1   7
BRANCH   5  14
ATOM     14  C   UNL     1     -22.250 -13.029 -13.876  1.00  0.00    +0.249 C 
BRANCH  14  15
ATOM     15  O   UNL     1     -20.834 -12.991 -13.678  1.00  0.00    -0.492 OA
BRANCH  15  16
ATOM     16  C   UNL     1     -20.193 -14.141 -13.305  1.00  0.00    +0.123 A 
ATOM     17  C   UNL     1     -20.608 -14.650 -12.068  1.00  0.00    +0.097 A 
ATOM     18  C   UNL     1     -19.191 -14.808 -14.035  1.00  0.00    +0.050 A 
ATOM     19  C   UNL     1     -20.016 -15.806 -11.605  1.00  0.00    +0.169 A 
ATOM     20  C   UNL     1     -18.606 -15.981 -13.540  1.00  0.00    +0.054 A 
ATOM     21  C   UNL     1     -19.041 -16.455 -12.323  1.00  0.00    +0.166 A 
ATOM     22  O   UNL     1     -20.301 -16.433 -10.432  1.00  0.00    -0.453 OA
ATOM     23  O   UNL     1     -18.588 -17.571 -11.694  1.00  0.00    -0.454 OA
ATOM     24  C   UNL     1     -19.389 -17.549 -10.494  1.00  0.00    +0.468 C 
ENDBRANCH  15  16
ENDBRANCH  14  15
ENDBRANCH   5  14
TORSDOF 4
ENDMDL
