MODEL 1
REMARK VINA RESULT:    -7.539      0.000      0.000
REMARK INTER + INTRA:          -9.651
REMARK INTER:                  -9.302
REMARK INTRA:                  -0.349
REMARK UNBOUND:                -0.349
REMARK SMILES COC(=O)C(c1ccccc1Cl)N1CCc2sccc2C1
REMARK SMILES IDX 3 1 4 2 2 3 1 4 5 5 6 6 7 7 11 8 8 9 10 10 9 11 12 12 13 13
REMARK SMILES IDX 14 14 21 15 15 16 20 17 16 18 19 19 17 20 18 21
REMARK H PARENT
ROOT
ATOM      1  C   UNL     1      17.661  10.836  65.518  1.00  0.00    +0.327 C 
ATOM      2  O   UNL     1      18.186  11.947  65.510  1.00  0.00    -0.250 OA
ENDROOT
BRANCH   1   3
ATOM      3  O   UNL     1      17.149  10.246  66.632  1.00  0.00    -0.468 OA
ATOM      4  C   UNL     1      15.910   9.570  66.431  1.00  0.00    +0.282 C 
ENDBRANCH   1   3
BRANCH   1   5
ATOM      5  C   UNL     1      17.495   9.981  64.238  1.00  0.00    +0.200 C 
BRANCH   5   6
ATOM      6  C   UNL     1      18.801   9.229  63.967  1.00  0.00    -0.001 A 
ATOM      7  C   UNL     1      19.778   9.881  63.183  1.00  0.00    +0.007 A 
ATOM      8  C   UNL     1      19.081   7.926  64.416  1.00  0.00    +0.046 A 
ATOM      9  C   UNL     1      20.991   9.264  62.871  1.00  0.00    +0.000 A 
ATOM     10  C   UNL     1      20.302   7.313  64.100  1.00  0.00    +0.021 A 
ATOM     11  C   UNL     1      21.254   7.979  63.331  1.00  0.00    +0.002 A 
ATOM     12 Cl   UNL     1      17.989   7.000  65.380  1.00  0.00    -0.084 Cl
ENDBRANCH   5   6
BRANCH   5  13
ATOM     13  N   UNL     1      16.924  10.725  63.067  1.00  0.00    -0.282 NA
ATOM     14  C   UNL     1      16.108   9.835  62.198  1.00  0.00    +0.091 C 
ATOM     15  C   UNL     1      16.099  11.872  63.536  1.00  0.00    +0.122 C 
ATOM     16  C   UNL     1      15.698  10.526  60.879  1.00  0.00    +0.062 C 
ATOM     17  C   UNL     1      15.399  12.535  62.381  1.00  0.00    -0.020 A 
ATOM     18  C   UNL     1      15.197  11.898  61.174  1.00  0.00    +0.010 A 
ATOM     19  C   UNL     1      14.835  13.847  62.365  1.00  0.00    +0.017 A 
ATOM     20  S   UNL     1      14.357  12.846  60.045  1.00  0.00    -0.149 S 
ATOM     21  C   UNL     1      14.240  14.144  61.155  1.00  0.00    +0.065 A 
ENDBRANCH   5  13
ENDBRANCH   1   5
TORSDOF 4
ENDMDL
MODEL 2
REMARK VINA RESULT:    -7.525      3.214      6.608
REMARK INTER + INTRA:          -9.633
REMARK INTER:                  -9.123
REMARK INTRA:                  -0.511
REMARK UNBOUND:                -0.349
REMARK SMILES COC(=O)C(c1ccccc1Cl)N1CCc2sccc2C1
REMARK SMILES IDX 3 1 4 2 2 3 1 4 5 5 6 6 7 7 11 8 8 9 10 10 9 11 12 12 13 13
REMARK SMILES IDX 14 14 21 15 15 16 20 17 16 18 19 19 17 20 18 21
REMARK H PARENT
ROOT
ATOM      1  C   UNL     1      17.846  11.903  60.595  1.00  0.00    +0.327 C 
ATOM      2  O   UNL     1      18.597  12.679  61.183  1.00  0.00    -0.250 OA
ENDROOT
BRANCH   1   3
ATOM      3  O   UNL     1      18.062  11.449  59.331  1.00  0.00    -0.468 OA
ATOM      4  C   UNL     1      17.788  12.399  58.303  1.00  0.00    +0.282 C 
ENDBRANCH   1   3
BRANCH   1   5
ATOM      5  C   UNL     1      16.565  11.324  61.245  1.00  0.00    +0.200 C 
BRANCH   5   6
ATOM      6  C   UNL     1      15.488  12.411  61.279  1.00  0.00    -0.001 A 
ATOM      7  C   UNL     1      14.540  12.422  60.232  1.00  0.00    +0.007 A 
ATOM      8  C   UNL     1      15.395  13.416  62.259  1.00  0.00    +0.046 A 
ATOM      9  C   UNL     1      13.533  13.388  60.173  1.00  0.00    +0.000 A 
ATOM     10  C   UNL     1      14.381  14.381  62.194  1.00  0.00    +0.021 A 
ATOM     11  C   UNL     1      13.452  14.367  61.156  1.00  0.00    +0.002 A 
ATOM     12 Cl   UNL     1      16.479  13.536  63.597  1.00  0.00    -0.084 Cl
ENDBRANCH   5   6
BRANCH   5  13
ATOM     13  N   UNL     1      16.800  10.608  62.542  1.00  0.00    -0.282 NA
ATOM     14  C   UNL     1      15.538  10.045  63.093  1.00  0.00    +0.091 C 
ATOM     15  C   UNL     1      17.802   9.522  62.360  1.00  0.00    +0.122 C 
ATOM     16  C   UNL     1      15.721   9.500  64.527  1.00  0.00    +0.062 C 
ATOM     17  C   UNL     1      17.935   8.700  63.613  1.00  0.00    -0.020 A 
ATOM     18  C   UNL     1      16.961   8.677  64.589  1.00  0.00    +0.010 A 
ATOM     19  C   UNL     1      19.020   7.835  63.955  1.00  0.00    +0.017 A 
ATOM     20  S   UNL     1      17.333   7.650  65.887  1.00  0.00    -0.149 S 
ATOM     21  C   UNL     1      18.821   7.206  65.167  1.00  0.00    +0.065 A 
ENDBRANCH   5  13
ENDBRANCH   1   5
TORSDOF 4
ENDMDL
MODEL 3
REMARK VINA RESULT:    -7.429      2.641      3.912
REMARK INTER + INTRA:          -9.515
REMARK INTER:                  -8.945
REMARK INTRA:                  -0.570
REMARK UNBOUND:                -0.349
REMARK SMILES COC(=O)C(c1ccccc1Cl)N1CCc2sccc2C1
REMARK SMILES IDX 3 1 4 2 2 3 1 4 5 5 6 6 7 7 11 8 8 9 10 10 9 11 12 12 13 13
REMARK SMILES IDX 14 14 21 15 15 16 20 17 16 18 19 19 17 20 18 21
REMARK H PARENT
ROOT
ATOM      1  C   UNL     1      16.914   9.699  61.600  1.00  0.00    +0.327 C 
ATOM      2  O   UNL     1      15.871   9.309  61.080  1.00  0.00    -0.250 OA
ENDROOT
BRANCH   1   3
ATOM      3  O   UNL     1      18.151   9.257  61.244  1.00  0.00    -0.468 OA
ATOM      4  C   UNL     1      19.042  10.278  60.800  1.00  0.00    +0.282 C 
ENDBRANCH   1   3
BRANCH   1   5
ATOM      5  C   UNL     1      16.942  10.773  62.715  1.00  0.00    +0.200 C 
BRANCH   5   6
ATOM      6  C   UNL     1      16.939  10.077  64.079  1.00  0.00    -0.001 A 
ATOM      7  C   UNL     1      15.694   9.653  64.591  1.00  0.00    +0.007 A 
ATOM      8  C   UNL     1      18.083   9.859  64.868  1.00  0.00    +0.046 A 
ATOM      9  C   UNL     1      15.594   9.026  65.835  1.00  0.00    +0.000 A 
ATOM     10  C   UNL     1      17.975   9.227  66.115  1.00  0.00    +0.021 A 
ATOM     11  C   UNL     1      16.737   8.811  66.597  1.00  0.00    +0.002 A 
ATOM     12 Cl   UNL     1      19.673  10.321  64.381  1.00  0.00    -0.084 Cl
ENDBRANCH   5   6
BRANCH   5  13
ATOM     13  N   UNL     1      15.929  11.866  62.546  1.00  0.00    -0.282 NA
ATOM     14  C   UNL     1      16.065  12.906  63.601  1.00  0.00    +0.091 C 
ATOM     15  C   UNL     1      16.058  12.488  61.200  1.00  0.00    +0.122 C 
ATOM     16  C   UNL     1      14.898  13.918  63.575  1.00  0.00    +0.062 C 
ATOM     17  C   UNL     1      15.152  13.683  61.074  1.00  0.00    -0.020 A 
ATOM     18  C   UNL     1      14.647  14.348  62.171  1.00  0.00    +0.010 A 
ATOM     19  C   UNL     1      14.722  14.302  59.860  1.00  0.00    +0.017 A 
ATOM     20  S   UNL     1      13.677  15.678  61.764  1.00  0.00    -0.149 S 
ATOM     21  C   UNL     1      13.913  15.396  60.092  1.00  0.00    +0.065 A 
ENDBRANCH   5  13
ENDBRANCH   1   5
TORSDOF 4
ENDMDL
MODEL 4
REMARK VINA RESULT:    -7.389      2.145      2.722
REMARK INTER + INTRA:          -9.466
REMARK INTER:                  -8.988
REMARK INTRA:                  -0.478
REMARK UNBOUND:                -0.349
REMARK SMILES COC(=O)C(c1ccccc1Cl)N1CCc2sccc2C1
REMARK SMILES IDX 3 1 4 2 2 3 1 4 5 5 6 6 7 7 11 8 8 9 10 10 9 11 12 12 13 13
REMARK SMILES IDX 14 14 21 15 15 16 20 17 16 18 19 19 17 20 18 21
REMARK H PARENT
ROOT
ATOM      1  C   UNL     1      18.539  11.535  64.596  1.00  0.00    +0.327 C 
ATOM      2  O   UNL     1      19.734  11.539  64.309  1.00  0.00    -0.250 OA
ENDROOT
BRANCH   1   3
ATOM      3  O   UNL     1      17.975  12.370  65.510  1.00  0.00    -0.468 OA
ATOM      4  C   UNL     1      16.585  12.617  65.312  1.00  0.00    +0.282 C 
ENDBRANCH   1   3
BRANCH   1   5
ATOM      5  C   UNL     1      17.520  10.586  63.919  1.00  0.00    +0.200 C 
BRANCH   5   6
ATOM      6  C   UNL     1      17.674   9.183  64.513  1.00  0.00    -0.001 A 
ATOM      7  C   UNL     1      18.867   8.482  64.228  1.00  0.00    +0.007 A 
ATOM      8  C   UNL     1      16.702   8.533  65.294  1.00  0.00    +0.046 A 
ATOM      9  C   UNL     1      19.085   7.191  64.712  1.00  0.00    +0.000 A 
ATOM     10  C   UNL     1      16.929   7.238  65.779  1.00  0.00    +0.021 A 
ATOM     11  C   UNL     1      18.116   6.569  65.490  1.00  0.00    +0.002 A 
ATOM     12 Cl   UNL     1      15.195   9.257  65.727  1.00  0.00    -0.084 Cl
ENDBRANCH   5   6
BRANCH   5  13
ATOM     13  N   UNL     1      17.510  10.655  62.421  1.00  0.00    -0.282 NA
ATOM     14  C   UNL     1      16.377   9.883  61.845  1.00  0.00    +0.091 C 
ATOM     15  C   UNL     1      17.443  12.071  61.969  1.00  0.00    +0.122 C 
ATOM     16  C   UNL     1      16.478   9.760  60.308  1.00  0.00    +0.062 C 
ATOM     17  C   UNL     1      17.280  12.149  60.475  1.00  0.00    -0.020 A 
ATOM     18  C   UNL     1      16.811  11.090  59.726  1.00  0.00    +0.010 A 
ATOM     19  C   UNL     1      17.543  13.282  59.646  1.00  0.00    +0.017 A 
ATOM     20  S   UNL     1      16.690  11.438  58.070  1.00  0.00    -0.149 S 
ATOM     21  C   UNL     1      17.267  13.031  58.317  1.00  0.00    +0.065 A 
ENDBRANCH   5  13
ENDBRANCH   1   5
TORSDOF 4
ENDMDL
MODEL 5
REMARK VINA RESULT:    -7.325      2.662      5.938
REMARK INTER + INTRA:          -9.387
REMARK INTER:                  -9.416
REMARK INTRA:                   0.029
REMARK UNBOUND:                -0.349
REMARK SMILES COC(=O)C(c1ccccc1Cl)N1CCc2sccc2C1
REMARK SMILES IDX 3 1 4 2 2 3 1 4 5 5 6 6 7 7 11 8 8 9 10 10 9 11 12 12 13 13
REMARK SMILES IDX 14 14 21 15 15 16 20 17 16 18 19 19 17 20 18 21
REMARK H PARENT
ROOT
ATOM      1  C   UNL     1      16.371  10.577  65.405  1.00  0.00    +0.327 C 
ATOM      2  O   UNL     1      16.630  10.338  66.583  1.00  0.00    -0.250 OA
ENDROOT
BRANCH   1   3
ATOM      3  O   UNL     1      15.298  10.063  64.745  1.00  0.00    -0.468 OA
ATOM      4  C   UNL     1      14.578   9.065  65.465  1.00  0.00    +0.282 C 
ENDBRANCH   1   3
BRANCH   1   5
ATOM      5  C   UNL     1      17.232  11.525  64.535  1.00  0.00    +0.200 C 
BRANCH   5   6
ATOM      6  C   UNL     1      16.317  12.283  63.569  1.00  0.00    -0.001 A 
ATOM      7  C   UNL     1      15.677  13.445  64.053  1.00  0.00    +0.007 A 
ATOM      8  C   UNL     1      16.046  11.886  62.247  1.00  0.00    +0.046 A 
ATOM      9  C   UNL     1      14.812  14.188  63.247  1.00  0.00    +0.000 A 
ATOM     10  C   UNL     1      15.178  12.638  61.443  1.00  0.00    +0.021 A 
ATOM     11  C   UNL     1      14.564  13.785  61.940  1.00  0.00    +0.002 A 
ATOM     12 Cl   UNL     1      16.750  10.490  61.514  1.00  0.00    -0.084 Cl
ENDBRANCH   5   6
BRANCH   5  13
ATOM     13  N   UNL     1      18.431  10.875  63.913  1.00  0.00    -0.282 NA
ATOM     14  C   UNL     1      19.679  11.627  64.213  1.00  0.00    +0.091 C 
ATOM     15  C   UNL     1      18.560   9.469  64.384  1.00  0.00    +0.122 C 
ATOM     16  C   UNL     1      20.885  11.101  63.403  1.00  0.00    +0.062 C 
ATOM     17  C   UNL     1      19.840   8.854  63.887  1.00  0.00    -0.020 A 
ATOM     18  C   UNL     1      20.911   9.613  63.464  1.00  0.00    +0.010 A 
ATOM     19  C   UNL     1      20.143   7.459  63.810  1.00  0.00    +0.017 A 
ATOM     20  S   UNL     1      22.246   8.684  62.982  1.00  0.00    -0.149 S 
ATOM     21  C   UNL     1      21.416   7.228  63.332  1.00  0.00    +0.065 A 
ENDBRANCH   5  13
ENDBRANCH   1   5
TORSDOF 4
ENDMDL
MODEL 6
REMARK VINA RESULT:    -7.176      2.164      3.343
REMARK INTER + INTRA:          -9.203
REMARK INTER:                  -8.881
REMARK INTRA:                  -0.322
REMARK UNBOUND:                -0.349
REMARK SMILES COC(=O)C(c1ccccc1Cl)N1CCc2sccc2C1
REMARK SMILES IDX 3 1 4 2 2 3 1 4 5 5 6 6 7 7 11 8 8 9 10 10 9 11 12 12 13 13
REMARK SMILES IDX 14 14 21 15 15 16 20 17 16 18 19 19 17 20 18 21
REMARK H PARENT
ROOT
ATOM      1  C   UNL     1      19.839   9.469  62.662  1.00  0.00    +0.327 C 
ATOM      2  O   UNL     1      19.740   8.835  61.613  1.00  0.00    -0.250 OA
ENDROOT
BRANCH   1   3
ATOM      3  O   UNL     1      20.986   9.560  63.388  1.00  0.00    -0.468 OA
ATOM      4  C   UNL     1      21.440  10.892  63.620  1.00  0.00    +0.282 C 
ENDBRANCH   1   3
BRANCH   1   5
ATOM      5  C   UNL     1      18.662  10.271  63.270  1.00  0.00    +0.200 C 
BRANCH   5   6
ATOM      6  C   UNL     1      18.124   9.519  64.491  1.00  0.00    -0.001 A 
ATOM      7  C   UNL     1      18.156   8.108  64.453  1.00  0.00    +0.007 A 
ATOM      8  C   UNL     1      17.573  10.133  65.630  1.00  0.00    +0.046 A 
ATOM      9  C   UNL     1      17.670   7.340  65.514  1.00  0.00    +0.000 A 
ATOM     10  C   UNL     1      17.089   9.357  66.691  1.00  0.00    +0.021 A 
ATOM     11  C   UNL     1      17.137   7.966  66.635  1.00  0.00    +0.002 A 
ATOM     12 Cl   UNL     1      17.462  11.846  65.823  1.00  0.00    -0.084 Cl
ENDBRANCH   5   6
BRANCH   5  13
ATOM     13  N   UNL     1      17.629  10.704  62.273  1.00  0.00    -0.282 NA
ATOM     14  C   UNL     1      16.316  10.053  62.526  1.00  0.00    +0.091 C 
ATOM     15  C   UNL     1      17.475  12.185  62.298  1.00  0.00    +0.122 C 
ATOM     16  C   UNL     1      15.307  10.314  61.386  1.00  0.00    +0.062 C 
ATOM     17  C   UNL     1      16.338  12.619  61.413  1.00  0.00    -0.020 A 
ATOM     18  C   UNL     1      15.334  11.758  61.023  1.00  0.00    +0.010 A 
ATOM     19  C   UNL     1      16.116  13.931  60.892  1.00  0.00    +0.017 A 
ATOM     20  S   UNL     1      14.153  12.497  60.053  1.00  0.00    -0.149 S 
ATOM     21  C   UNL     1      14.965  14.002  60.134  1.00  0.00    +0.065 A 
ENDBRANCH   5  13
ENDBRANCH   1   5
TORSDOF 4
ENDMDL
MODEL 7
REMARK VINA RESULT:    -7.054      4.307      6.214
REMARK INTER + INTRA:          -9.053
REMARK INTER:                  -8.740
REMARK INTRA:                  -0.313
REMARK UNBOUND:                -0.349
REMARK SMILES COC(=O)C(c1ccccc1Cl)N1CCc2sccc2C1
REMARK SMILES IDX 3 1 4 2 2 3 1 4 5 5 6 6 7 7 11 8 8 9 10 10 9 11 12 12 13 13
REMARK SMILES IDX 14 14 21 15 15 16 20 17 16 18 19 19 17 20 18 21
REMARK H PARENT
ROOT
ATOM      1  C   UNL     1      14.941  13.636  61.476  1.00  0.00    +0.327 C 
ATOM      2  O   UNL     1      14.220  14.491  61.987  1.00  0.00    -0.250 OA
ENDROOT
BRANCH   1   3
ATOM      3  O   UNL     1      14.501  12.708  60.583  1.00  0.00    -0.468 OA
ATOM      4  C   UNL     1      13.314  13.073  59.882  1.00  0.00    +0.282 C 
ENDBRANCH   1   3
BRANCH   1   5
ATOM      5  C   UNL     1      16.457  13.534  61.772  1.00  0.00    +0.200 C 
BRANCH   5   6
ATOM      6  C   UNL     1      17.218  13.425  60.448  1.00  0.00    -0.001 A 
ATOM      7  C   UNL     1      17.924  12.228  60.197  1.00  0.00    +0.007 A 
ATOM      8  C   UNL     1      17.289  14.444  59.481  1.00  0.00    +0.046 A 
ATOM      9  C   UNL     1      18.659  12.049  59.024  1.00  0.00    +0.000 A 
ATOM     10  C   UNL     1      18.028  14.257  58.304  1.00  0.00    +0.021 A 
ATOM     11  C   UNL     1      18.710  13.064  58.076  1.00  0.00    +0.002 A 
ATOM     12 Cl   UNL     1      16.484  15.963  59.643  1.00  0.00    -0.084 Cl
ENDBRANCH   5   6
BRANCH   5  13
ATOM     13  N   UNL     1      16.817  12.511  62.809  1.00  0.00    -0.282 NA
ATOM     14  C   UNL     1      17.523  13.128  63.964  1.00  0.00    +0.091 C 
ATOM     15  C   UNL     1      15.597  11.800  63.280  1.00  0.00    +0.122 C 
ATOM     16  C   UNL     1      18.094  12.067  64.931  1.00  0.00    +0.062 C 
ATOM     17  C   UNL     1      15.923  10.880  64.425  1.00  0.00    -0.020 A 
ATOM     18  C   UNL     1      17.059  11.028  65.193  1.00  0.00    +0.010 A 
ATOM     19  C   UNL     1      15.132   9.785  64.891  1.00  0.00    +0.017 A 
ATOM     20  S   UNL     1      17.182   9.885  66.440  1.00  0.00    -0.149 S 
ATOM     21  C   UNL     1      15.702   9.157  65.979  1.00  0.00    +0.065 A 
ENDBRANCH   5  13
ENDBRANCH   1   5
TORSDOF 4
ENDMDL
MODEL 8
REMARK VINA RESULT:    -6.975      2.014      3.241
REMARK INTER + INTRA:          -8.956
REMARK INTER:                  -9.393
REMARK INTRA:                   0.437
REMARK UNBOUND:                -0.349
REMARK SMILES COC(=O)C(c1ccccc1Cl)N1CCc2sccc2C1
REMARK SMILES IDX 3 1 4 2 2 3 1 4 5 5 6 6 7 7 11 8 8 9 10 10 9 11 12 12 13 13
REMARK SMILES IDX 14 14 21 15 15 16 20 17 16 18 19 19 17 20 18 21
REMARK H PARENT
ROOT
ATOM      1  C   UNL     1      20.049  10.733  63.597  1.00  0.00    +0.327 C 
ATOM      2  O   UNL     1      21.106  11.216  63.998  1.00  0.00    -0.250 OA
ENDROOT
BRANCH   1   3
ATOM      3  O   UNL     1      19.891  10.163  62.371  1.00  0.00    -0.468 OA
ATOM      4  C   UNL     1      20.714  10.718  61.348  1.00  0.00    +0.282 C 
ENDBRANCH   1   3
BRANCH   1   5
ATOM      5  C   UNL     1      18.766  10.690  64.464  1.00  0.00    +0.200 C 
BRANCH   5   6
ATOM      6  C   UNL     1      18.513   9.248  64.910  1.00  0.00    -0.001 A 
ATOM      7  C   UNL     1      19.284   8.233  64.302  1.00  0.00    +0.007 A 
ATOM      8  C   UNL     1      17.546   8.861  65.856  1.00  0.00    +0.046 A 
ATOM      9  C   UNL     1      19.107   6.888  64.633  1.00  0.00    +0.000 A 
ATOM     10  C   UNL     1      17.376   7.509  66.185  1.00  0.00    +0.021 A 
ATOM     11  C   UNL     1      18.153   6.526  65.577  1.00  0.00    +0.002 A 
ATOM     12 Cl   UNL     1      16.527   9.983  66.682  1.00  0.00    -0.084 Cl
ENDBRANCH   5   6
BRANCH   5  13
ATOM     13  N   UNL     1      17.588  11.396  63.861  1.00  0.00    -0.282 NA
ATOM     14  C   UNL     1      17.853  12.849  63.682  1.00  0.00    +0.091 C 
ATOM     15  C   UNL     1      17.230  10.780  62.554  1.00  0.00    +0.122 C 
ATOM     16  C   UNL     1      16.583  13.626  63.271  1.00  0.00    +0.062 C 
ATOM     17  C   UNL     1      16.149  11.571  61.868  1.00  0.00    -0.020 A 
ATOM     18  C   UNL     1      15.879  12.885  62.187  1.00  0.00    +0.010 A 
ATOM     19  C   UNL     1      15.300  11.118  60.813  1.00  0.00    +0.017 A 
ATOM     20  S   UNL     1      14.637  13.563  61.251  1.00  0.00    -0.149 S 
ATOM     21  C   UNL     1      14.429  12.100  60.387  1.00  0.00    +0.065 A 
ENDBRANCH   5  13
ENDBRANCH   1   5
TORSDOF 4
ENDMDL
MODEL 9
REMARK VINA RESULT:    -6.965      2.926      5.685
REMARK INTER + INTRA:          -8.943
REMARK INTER:                  -9.277
REMARK INTRA:                   0.334
REMARK UNBOUND:                -0.349
REMARK SMILES COC(=O)C(c1ccccc1Cl)N1CCc2sccc2C1
REMARK SMILES IDX 3 1 4 2 2 3 1 4 5 5 6 6 7 7 11 8 8 9 10 10 9 11 12 12 13 13
REMARK SMILES IDX 14 14 21 15 15 16 20 17 16 18 19 19 17 20 18 21
REMARK H PARENT
ROOT
ATOM      1  C   UNL     1      15.924   9.976  65.643  1.00  0.00    +0.327 C 
ATOM      2  O   UNL     1      16.220   9.496  66.736  1.00  0.00    -0.250 OA
ENDROOT
BRANCH   1   3
ATOM      3  O   UNL     1      14.650  10.076  65.177  1.00  0.00    -0.468 OA
ATOM      4  C   UNL     1      13.861   8.900  65.348  1.00  0.00    +0.282 C 
ENDBRANCH   1   3
BRANCH   1   5
ATOM      5  C   UNL     1      16.981  10.556  64.671  1.00  0.00    +0.200 C 
BRANCH   5   6
ATOM      6  C   UNL     1      16.304  10.889  63.339  1.00  0.00    -0.001 A 
ATOM      7  C   UNL     1      16.131   9.836  62.414  1.00  0.00    +0.007 A 
ATOM      8  C   UNL     1      15.873  12.174  62.960  1.00  0.00    +0.046 A 
ATOM      9  C   UNL     1      15.539  10.053  61.168  1.00  0.00    +0.000 A 
ATOM     10  C   UNL     1      15.278  12.383  61.708  1.00  0.00    +0.021 A 
ATOM     11  C   UNL     1      15.111  11.327  60.815  1.00  0.00    +0.002 A 
ATOM     12 Cl   UNL     1      16.017  13.561  63.978  1.00  0.00    -0.084 Cl
ENDBRANCH   5   6
BRANCH   5  13
ATOM     13  N   UNL     1      18.239   9.746  64.570  1.00  0.00    -0.282 NA
ATOM     14  C   UNL     1      17.946   8.306  64.341  1.00  0.00    +0.091 C 
ATOM     15  C   UNL     1      19.105  10.267  63.477  1.00  0.00    +0.122 C 
ATOM     16  C   UNL     1      19.212   7.428  64.455  1.00  0.00    +0.062 C 
ATOM     17  C   UNL     1      20.297   9.374  63.266  1.00  0.00    -0.020 A 
ATOM     18  C   UNL     1      20.325   8.064  63.695  1.00  0.00    +0.010 A 
ATOM     19  C   UNL     1      21.510   9.715  62.593  1.00  0.00    +0.017 A 
ATOM     20  S   UNL     1      21.768   7.259  63.310  1.00  0.00    -0.149 S 
ATOM     21  C   UNL     1      22.396   8.659  62.549  1.00  0.00    +0.065 A 
ENDBRANCH   5  13
ENDBRANCH   1   5
TORSDOF 4
ENDMDL
