MODEL 1
REMARK VINA RESULT:    -9.158      0.000      0.000
REMARK INTER + INTRA:         -14.499
REMARK INTER:                 -12.906
REMARK INTRA:                  -1.593
REMARK UNBOUND:                -1.593
REMARK SMILES CC(C)=CCCC(C)=CCOc1ccc2c(=O)cc(-c3ccco3)oc2c1
REMARK SMILES IDX 7 1 8 2 9 3 6 4 5 5 4 6 2 7 1 8 3 9 10 10 11 11 12 12 27 13
REMARK SMILES IDX 13 14 26 15 14 16 15 17 25 18 16 19 19 20 17 21 18 22 20 23
REMARK SMILES IDX 21 24 24 25 22 26 23 27
REMARK H PARENT
ROOT
ATOM      1  C   UNL     1     -22.601 -13.381 -12.449  1.00  0.00    -0.074 C 
ATOM      2  C   UNL     1     -21.111 -13.468 -12.643  1.00  0.00    +0.039 C 
ATOM      3  C   UNL     1     -23.516 -13.798 -13.349  1.00  0.00    +0.013 C 
ENDROOT
BRANCH   1   4
ATOM      4  C   UNL     1     -23.047 -12.758 -11.139  1.00  0.00    +0.034 C 
BRANCH   4   5
ATOM      5  C   UNL     1     -22.340 -13.370  -9.924  1.00  0.00    +0.032 C 
BRANCH   5   6
ATOM      6  C   UNL     1     -23.167 -14.462  -9.300  1.00  0.00    -0.028 C 
ATOM      7  C   UNL     1     -23.096 -15.786  -9.543  1.00  0.00    -0.080 C 
ATOM      8  C   UNL     1     -22.116 -16.442 -10.477  1.00  0.00    +0.039 C 
ATOM      9  C   UNL     1     -24.031 -16.745  -8.852  1.00  0.00    +0.039 C 
ENDBRANCH   5   6
ENDBRANCH   4   5
ENDBRANCH   1   4
BRANCH   3  10
ATOM     10  C   UNL     1     -23.313 -14.368 -14.730  1.00  0.00    +0.257 C 
BRANCH  10  11
ATOM     11  O   UNL     1     -23.925 -15.640 -14.928  1.00  0.00    -0.489 OA
BRANCH  11  12
ATOM     12  C   UNL     1     -23.177 -16.770 -14.745  1.00  0.00    +0.123 A 
ATOM     13  C   UNL     1     -23.828 -17.957 -15.098  1.00  0.00    +0.094 A 
ATOM     14  C   UNL     1     -21.878 -16.826 -14.235  1.00  0.00    +0.047 A 
ATOM     15  C   UNL     1     -23.186 -19.186 -14.954  1.00  0.00    +0.142 A 
ATOM     16  C   UNL     1     -21.231 -18.058 -14.090  1.00  0.00    +0.020 A 
ATOM     17  C   UNL     1     -21.890 -19.234 -14.453  1.00  0.00    +0.065 A 
ATOM     18  O   UNL     1     -23.883 -20.309 -15.324  1.00  0.00    -0.452 OA
ATOM     19  C   UNL     1     -21.234 -20.542 -14.312  1.00  0.00    +0.193 C 
ATOM     20  C   UNL     1     -23.262 -21.539 -15.186  1.00  0.00    +0.173 C 
ATOM     21  O   UNL     1     -20.095 -20.658 -13.881  1.00  0.00    -0.289 OA
ATOM     22  C   UNL     1     -22.020 -21.718 -14.718  1.00  0.00    +0.103 C 
BRANCH  20  23
ATOM     23  C   UNL     1     -24.050 -22.658 -15.589  1.00  0.00    +0.169 A 
ATOM     24  C   UNL     1     -25.044 -22.737 -16.562  1.00  0.00    +0.054 A 
ATOM     25  O   UNL     1     -23.935 -23.917 -15.030  1.00  0.00    -0.461 OA
ATOM     26  C   UNL     1     -25.532 -24.065 -16.590  1.00  0.00    +0.043 A 
ATOM     27  C   UNL     1     -24.821 -24.743 -15.634  1.00  0.00    +0.196 A 
ENDBRANCH  20  23
ENDBRANCH  11  12
ENDBRANCH  10  11
ENDBRANCH   3  10
TORSDOF 7
ENDMDL
MODEL 2
REMARK VINA RESULT:    -9.145      2.363      4.846
REMARK INTER + INTRA:         -14.480
REMARK INTER:                 -13.034
REMARK INTRA:                  -1.446
REMARK UNBOUND:                -1.593
REMARK SMILES CC(C)=CCCC(C)=CCOc1ccc2c(=O)cc(-c3ccco3)oc2c1
REMARK SMILES IDX 7 1 8 2 9 3 6 4 5 5 4 6 2 7 1 8 3 9 10 10 11 11 12 12 27 13
REMARK SMILES IDX 13 14 26 15 14 16 15 17 25 18 16 19 19 20 17 21 18 22 20 23
REMARK SMILES IDX 21 24 24 25 22 26 23 27
REMARK H PARENT
ROOT
ATOM      1  C   UNL     1     -21.950 -15.094  -8.342  1.00  0.00    -0.074 C 
ATOM      2  C   UNL     1     -23.285 -15.478  -8.921  1.00  0.00    +0.039 C 
ATOM      3  C   UNL     1     -21.243 -14.003  -8.705  1.00  0.00    +0.013 C 
ENDROOT
BRANCH   1   4
ATOM      4  C   UNL     1     -21.402 -16.046  -7.294  1.00  0.00    +0.034 C 
BRANCH   4   5
ATOM      5  C   UNL     1     -21.699 -17.515  -7.618  1.00  0.00    +0.032 C 
BRANCH   5   6
ATOM      6  C   UNL     1     -20.698 -18.076  -8.591  1.00  0.00    -0.028 C 
ATOM      7  C   UNL     1     -20.011 -19.231  -8.488  1.00  0.00    -0.080 C 
ATOM      8  C   UNL     1     -20.156 -20.226  -7.368  1.00  0.00    +0.039 C 
ATOM      9  C   UNL     1     -19.013 -19.629  -9.543  1.00  0.00    +0.039 C 
ENDBRANCH   5   6
ENDBRANCH   4   5
ENDBRANCH   1   4
BRANCH   3  10
ATOM     10  C   UNL     1     -21.545 -12.973  -9.762  1.00  0.00    +0.257 C 
BRANCH  10  11
ATOM     11  O   UNL     1     -20.955 -13.252 -11.030  1.00  0.00    -0.489 OA
BRANCH  11  12
ATOM     12  C   UNL     1     -21.714 -13.859 -11.993  1.00  0.00    +0.123 A 
ATOM     13  C   UNL     1     -21.400 -15.205 -12.211  1.00  0.00    +0.094 A 
ATOM     14  C   UNL     1     -22.718 -13.257 -12.753  1.00  0.00    +0.047 A 
ATOM     15  C   UNL     1     -22.089 -15.945 -13.171  1.00  0.00    +0.142 A 
ATOM     16  C   UNL     1     -23.411 -13.997 -13.717  1.00  0.00    +0.020 A 
ATOM     17  C   UNL     1     -23.093 -15.341 -13.920  1.00  0.00    +0.065 A 
ATOM     18  O   UNL     1     -21.731 -17.260 -13.329  1.00  0.00    -0.452 OA
ATOM     19  C   UNL     1     -23.805 -16.144 -14.925  1.00  0.00    +0.193 C 
ATOM     20  C   UNL     1     -22.403 -18.011 -14.279  1.00  0.00    +0.173 C 
ATOM     21  O   UNL     1     -24.700 -15.678 -15.617  1.00  0.00    -0.289 OA
ATOM     22  C   UNL     1     -23.386 -17.547 -15.061  1.00  0.00    +0.103 C 
BRANCH  20  23
ATOM     23  C   UNL     1     -21.974 -19.367 -14.386  1.00  0.00    +0.169 A 
ATOM     24  C   UNL     1     -22.682 -20.490 -14.807  1.00  0.00    +0.054 A 
ATOM     25  O   UNL     1     -20.700 -19.796 -14.061  1.00  0.00    -0.461 OA
ATOM     26  C   UNL     1     -21.821 -21.611 -14.737  1.00  0.00    +0.043 A 
ATOM     27  C   UNL     1     -20.623 -21.131 -14.275  1.00  0.00    +0.196 A 
ENDBRANCH  20  23
ENDBRANCH  11  12
ENDBRANCH  10  11
ENDBRANCH   3  10
TORSDOF 7
ENDMDL
MODEL 3
REMARK VINA RESULT:    -8.909      3.150      5.118
REMARK INTER + INTRA:         -14.148
REMARK INTER:                 -12.292
REMARK INTRA:                  -1.855
REMARK UNBOUND:                -1.593
REMARK SMILES CC(C)=CCCC(C)=CCOc1ccc2c(=O)cc(-c3ccco3)oc2c1
REMARK SMILES IDX 7 1 8 2 9 3 6 4 5 5 4 6 2 7 1 8 3 9 10 10 11 11 12 12 27 13
REMARK SMILES IDX 13 14 26 15 14 16 15 17 25 18 16 19 19 20 17 21 18 22 20 23
REMARK SMILES IDX 21 24 24 25 22 26 23 27
REMARK H PARENT
ROOT
ATOM      1  C   UNL     1     -22.144 -14.880  -8.487  1.00  0.00    -0.074 C 
ATOM      2  C   UNL     1     -20.906 -14.079  -8.180  1.00  0.00    +0.039 C 
ATOM      3  C   UNL     1     -23.123 -14.485  -9.326  1.00  0.00    +0.013 C 
ENDROOT
BRANCH   1   4
ATOM      4  C   UNL     1     -22.250 -16.209  -7.760  1.00  0.00    +0.034 C 
BRANCH   4   5
ATOM      5  C   UNL     1     -21.947 -17.405  -8.669  1.00  0.00    +0.032 C 
BRANCH   5   6
ATOM      6  C   UNL     1     -20.615 -17.251  -9.353  1.00  0.00    -0.028 C 
ATOM      7  C   UNL     1     -19.575 -18.108  -9.327  1.00  0.00    -0.080 C 
ATOM      8  C   UNL     1     -19.568 -19.438  -8.625  1.00  0.00    +0.039 C 
ATOM      9  C   UNL     1     -18.291 -17.779 -10.045  1.00  0.00    +0.039 C 
ENDBRANCH   5   6
ENDBRANCH   4   5
ENDBRANCH   1   4
BRANCH   3  10
ATOM     10  C   UNL     1     -23.270 -13.192 -10.087  1.00  0.00    +0.257 C 
BRANCH  10  11
ATOM     11  O   UNL     1     -23.165 -13.336 -11.502  1.00  0.00    -0.489 OA
BRANCH  11  12
ATOM     12  C   UNL     1     -22.000 -13.818 -12.032  1.00  0.00    +0.123 A 
ATOM     13  C   UNL     1     -21.958 -15.211 -12.160  1.00  0.00    +0.094 A 
ATOM     14  C   UNL     1     -20.893 -13.060 -12.417  1.00  0.00    +0.047 A 
ATOM     15  C   UNL     1     -20.826 -15.839 -12.678  1.00  0.00    +0.142 A 
ATOM     16  C   UNL     1     -19.756 -13.688 -12.938  1.00  0.00    +0.020 A 
ATOM     17  C   UNL     1     -19.730 -15.077 -13.068  1.00  0.00    +0.065 A 
ATOM     18  O   UNL     1     -20.856 -17.208 -12.779  1.00  0.00    -0.452 OA
ATOM     19  C   UNL     1     -18.550 -15.764 -13.612  1.00  0.00    +0.193 C 
ATOM     20  C   UNL     1     -19.740 -17.849 -13.290  1.00  0.00    +0.173 C 
ATOM     21  O   UNL     1     -17.551 -15.157 -13.976  1.00  0.00    -0.289 OA
ATOM     22  C   UNL     1     -18.624 -17.231 -13.699  1.00  0.00    +0.103 C 
BRANCH  20  23
ATOM     23  C   UNL     1     -19.845 -19.270 -13.362  1.00  0.00    +0.169 A 
ATOM     24  C   UNL     1     -19.177 -20.247 -12.627  1.00  0.00    +0.054 A 
ATOM     25  O   UNL     1     -20.686 -19.933 -14.237  1.00  0.00    -0.461 OA
ATOM     26  C   UNL     1     -19.624 -21.516 -13.066  1.00  0.00    +0.043 A 
ATOM     27  C   UNL     1     -20.545 -21.266 -14.050  1.00  0.00    +0.196 A 
ENDBRANCH  20  23
ENDBRANCH  11  12
ENDBRANCH  10  11
ENDBRANCH   3  10
TORSDOF 7
ENDMDL
MODEL 4
REMARK VINA RESULT:    -8.744      1.774      2.702
REMARK INTER + INTRA:         -13.915
REMARK INTER:                 -12.682
REMARK INTRA:                  -1.233
REMARK UNBOUND:                -1.593
REMARK SMILES CC(C)=CCCC(C)=CCOc1ccc2c(=O)cc(-c3ccco3)oc2c1
REMARK SMILES IDX 7 1 8 2 9 3 6 4 5 5 4 6 2 7 1 8 3 9 10 10 11 11 12 12 27 13
REMARK SMILES IDX 13 14 26 15 14 16 15 17 25 18 16 19 19 20 17 21 18 22 20 23
REMARK SMILES IDX 21 24 24 25 22 26 23 27
REMARK H PARENT
ROOT
ATOM      1  C   UNL     1     -22.789 -15.794 -10.220  1.00  0.00    -0.074 C 
ATOM      2  C   UNL     1     -22.870 -14.436  -9.575  1.00  0.00    +0.039 C 
ATOM      3  C   UNL     1     -22.583 -16.005 -11.536  1.00  0.00    +0.013 C 
ENDROOT
BRANCH   1   4
ATOM      4  C   UNL     1     -22.975 -16.969  -9.277  1.00  0.00    +0.034 C 
BRANCH   4   5
ATOM      5  C   UNL     1     -21.945 -16.985  -8.142  1.00  0.00    +0.032 C 
BRANCH   5   6
ATOM      6  C   UNL     1     -21.074 -18.211  -8.209  1.00  0.00    -0.028 C 
ATOM      7  C   UNL     1     -19.919 -18.363  -8.886  1.00  0.00    -0.080 C 
ATOM      8  C   UNL     1     -19.241 -17.286  -9.689  1.00  0.00    +0.039 C 
ATOM      9  C   UNL     1     -19.188 -19.680  -8.873  1.00  0.00    +0.039 C 
ENDBRANCH   5   6
ENDBRANCH   4   5
ENDBRANCH   1   4
BRANCH   3  10
ATOM     10  C   UNL     1     -22.450 -15.008 -12.659  1.00  0.00    +0.257 C 
BRANCH  10  11
ATOM     11  O   UNL     1     -21.899 -15.552 -13.856  1.00  0.00    -0.489 OA
BRANCH  11  12
ATOM     12  C   UNL     1     -21.450 -16.843 -13.850  1.00  0.00    +0.123 A 
ATOM     13  C   UNL     1     -22.362 -17.773 -14.361  1.00  0.00    +0.094 A 
ATOM     14  C   UNL     1     -20.214 -17.286 -13.374  1.00  0.00    +0.047 A 
ATOM     15  C   UNL     1     -22.040 -19.129 -14.407  1.00  0.00    +0.142 A 
ATOM     16  C   UNL     1     -19.887 -18.646 -13.419  1.00  0.00    +0.020 A 
ATOM     17  C   UNL     1     -20.804 -19.561 -13.939  1.00  0.00    +0.065 A 
ATOM     18  O   UNL     1     -22.981 -19.984 -14.924  1.00  0.00    -0.452 OA
ATOM     19  C   UNL     1     -20.488 -20.996 -13.999  1.00  0.00    +0.193 C 
ATOM     20  C   UNL     1     -22.679 -21.334 -14.976  1.00  0.00    +0.173 C 
ATOM     21  O   UNL     1     -19.420 -21.446 -13.607  1.00  0.00    -0.289 OA
ATOM     22  C   UNL     1     -21.526 -21.875 -14.559  1.00  0.00    +0.103 C 
BRANCH  20  23
ATOM     23  C   UNL     1     -23.706 -22.158 -15.524  1.00  0.00    +0.169 A 
ATOM     24  C   UNL     1     -24.000 -23.496 -15.269  1.00  0.00    +0.054 A 
ATOM     25  O   UNL     1     -24.626 -21.717 -16.458  1.00  0.00    -0.461 OA
ATOM     26  C   UNL     1     -25.114 -23.864 -16.060  1.00  0.00    +0.043 A 
ATOM     27  C   UNL     1     -25.456 -22.741 -16.767  1.00  0.00    +0.196 A 
ENDBRANCH  20  23
ENDBRANCH  11  12
ENDBRANCH  10  11
ENDBRANCH   3  10
TORSDOF 7
ENDMDL
MODEL 5
REMARK VINA RESULT:    -8.739      1.943      3.563
REMARK INTER + INTRA:         -13.907
REMARK INTER:                 -12.551
REMARK INTRA:                  -1.356
REMARK UNBOUND:                -1.593
REMARK SMILES CC(C)=CCCC(C)=CCOc1ccc2c(=O)cc(-c3ccco3)oc2c1
REMARK SMILES IDX 7 1 8 2 9 3 6 4 5 5 4 6 2 7 1 8 3 9 10 10 11 11 12 12 27 13
REMARK SMILES IDX 13 14 26 15 14 16 15 17 25 18 16 19 19 20 17 21 18 22 20 23
REMARK SMILES IDX 21 24 24 25 22 26 23 27
REMARK H PARENT
ROOT
ATOM      1  C   UNL     1     -20.957 -13.830 -11.504  1.00  0.00    -0.074 C 
ATOM      2  C   UNL     1     -20.601 -15.292 -11.535  1.00  0.00    +0.039 C 
ATOM      3  C   UNL     1     -20.720 -12.963 -12.509  1.00  0.00    +0.013 C 
ENDROOT
BRANCH   1   4
ATOM      4  C   UNL     1     -21.613 -13.352 -10.220  1.00  0.00    +0.034 C 
BRANCH   4   5
ATOM      5  C   UNL     1     -22.880 -14.142  -9.875  1.00  0.00    +0.032 C 
BRANCH   5   6
ATOM      6  C   UNL     1     -22.689 -14.972  -8.634  1.00  0.00    -0.028 C 
ATOM      7  C   UNL     1     -23.174 -16.205  -8.388  1.00  0.00    -0.080 C 
ATOM      8  C   UNL     1     -23.982 -17.024  -9.356  1.00  0.00    +0.039 C 
ATOM      9  C   UNL     1     -22.915 -16.883  -7.068  1.00  0.00    +0.039 C 
ENDBRANCH   5   6
ENDBRANCH   4   5
ENDBRANCH   1   4
BRANCH   3  10
ATOM     10  C   UNL     1     -20.021 -13.188 -13.826  1.00  0.00    +0.257 C 
BRANCH  10  11
ATOM     11  O   UNL     1     -20.889 -13.150 -14.957  1.00  0.00    -0.489 OA
BRANCH  11  12
ATOM     12  C   UNL     1     -21.992 -13.959 -14.971  1.00  0.00    +0.123 A 
ATOM     13  C   UNL     1     -21.705 -15.327 -14.892  1.00  0.00    +0.094 A 
ATOM     14  C   UNL     1     -23.320 -13.541 -15.074  1.00  0.00    +0.047 A 
ATOM     15  C   UNL     1     -22.734 -16.267 -14.906  1.00  0.00    +0.142 A 
ATOM     16  C   UNL     1     -24.356 -14.483 -15.087  1.00  0.00    +0.020 A 
ATOM     17  C   UNL     1     -24.056 -15.844 -15.001  1.00  0.00    +0.065 A 
ATOM     18  O   UNL     1     -22.381 -17.590 -14.822  1.00  0.00    -0.452 OA
ATOM     19  C   UNL     1     -25.122 -16.855 -15.012  1.00  0.00    +0.193 C 
ATOM     20  C   UNL     1     -23.390 -18.539 -14.836  1.00  0.00    +0.173 C 
ATOM     21  O   UNL     1     -26.306 -16.555 -15.091  1.00  0.00    -0.289 OA
ATOM     22  C   UNL     1     -24.697 -18.260 -14.923  1.00  0.00    +0.103 C 
BRANCH  20  23
ATOM     23  C   UNL     1     -22.943 -19.891 -14.747  1.00  0.00    +0.169 A 
ATOM     24  C   UNL     1     -23.675 -21.073 -14.834  1.00  0.00    +0.054 A 
ATOM     25  O   UNL     1     -21.624 -20.251 -14.546  1.00  0.00    -0.461 OA
ATOM     26  C   UNL     1     -22.782 -22.160 -14.684  1.00  0.00    +0.043 A 
ATOM     27  C   UNL     1     -21.542 -21.602 -14.510  1.00  0.00    +0.196 A 
ENDBRANCH  20  23
ENDBRANCH  11  12
ENDBRANCH  10  11
ENDBRANCH   3  10
TORSDOF 7
ENDMDL
MODEL 6
REMARK VINA RESULT:    -8.731      1.763      2.984
REMARK INTER + INTRA:         -13.896
REMARK INTER:                 -12.673
REMARK INTRA:                  -1.223
REMARK UNBOUND:                -1.593
REMARK SMILES CC(C)=CCCC(C)=CCOc1ccc2c(=O)cc(-c3ccco3)oc2c1
REMARK SMILES IDX 7 1 8 2 9 3 6 4 5 5 4 6 2 7 1 8 3 9 10 10 11 11 12 12 27 13
REMARK SMILES IDX 13 14 26 15 14 16 15 17 25 18 16 19 19 20 17 21 18 22 20 23
REMARK SMILES IDX 21 24 24 25 22 26 23 27
REMARK H PARENT
ROOT
ATOM      1  C   UNL     1     -22.779 -12.969 -10.766  1.00  0.00    -0.074 C 
ATOM      2  C   UNL     1     -21.568 -12.119 -10.485  1.00  0.00    +0.039 C 
ATOM      3  C   UNL     1     -23.448 -12.985 -11.937  1.00  0.00    +0.013 C 
ENDROOT
BRANCH   1   4
ATOM      4  C   UNL     1     -23.242 -13.835  -9.609  1.00  0.00    +0.034 C 
BRANCH   4   5
ATOM      5  C   UNL     1     -22.967 -15.326  -9.839  1.00  0.00    +0.032 C 
BRANCH   5   6
ATOM      6  C   UNL     1     -23.269 -16.137  -8.608  1.00  0.00    -0.028 C 
ATOM      7  C   UNL     1     -22.482 -16.314  -7.528  1.00  0.00    -0.080 C 
ATOM      8  C   UNL     1     -21.134 -15.677  -7.328  1.00  0.00    +0.039 C 
ATOM      9  C   UNL     1     -22.927 -17.193  -6.389  1.00  0.00    +0.039 C 
ENDBRANCH   5   6
ENDBRANCH   4   5
ENDBRANCH   1   4
BRANCH   3  10
ATOM     10  C   UNL     1     -23.223 -12.165 -13.182  1.00  0.00    +0.257 C 
BRANCH  10  11
ATOM     11  O   UNL     1     -22.736 -12.917 -14.292  1.00  0.00    -0.489 OA
BRANCH  11  12
ATOM     12  C   UNL     1     -21.948 -14.009 -14.056  1.00  0.00    +0.123 A 
ATOM     13  C   UNL     1     -22.553 -15.234 -14.359  1.00  0.00    +0.094 A 
ATOM     14  C   UNL     1     -20.650 -13.994 -13.539  1.00  0.00    +0.047 A 
ATOM     15  C   UNL     1     -21.866 -16.430 -14.158  1.00  0.00    +0.142 A 
ATOM     16  C   UNL     1     -19.958 -15.193 -13.338  1.00  0.00    +0.020 A 
ATOM     17  C   UNL     1     -20.571 -16.408 -13.651  1.00  0.00    +0.065 A 
ATOM     18  O   UNL     1     -22.519 -17.593 -14.480  1.00  0.00    -0.452 OA
ATOM     19  C   UNL     1     -19.869 -17.683 -13.450  1.00  0.00    +0.193 C 
ATOM     20  C   UNL     1     -21.853 -18.792 -14.286  1.00  0.00    +0.173 C 
ATOM     21  O   UNL     1     -18.728 -17.738 -13.010  1.00  0.00    -0.289 OA
ATOM     22  C   UNL     1     -20.608 -18.904 -13.806  1.00  0.00    +0.103 C 
BRANCH  20  23
ATOM     23  C   UNL     1     -22.597 -19.956 -14.642  1.00  0.00    +0.169 A 
ATOM     24  C   UNL     1     -22.180 -21.283 -14.728  1.00  0.00    +0.054 A 
ATOM     25  O   UNL     1     -23.938 -19.936 -14.979  1.00  0.00    -0.461 OA
ATOM     26  C   UNL     1     -23.287 -22.071 -15.121  1.00  0.00    +0.043 A 
ATOM     27  C   UNL     1     -24.335 -21.199 -15.261  1.00  0.00    +0.196 A 
ENDBRANCH  20  23
ENDBRANCH  11  12
ENDBRANCH  10  11
ENDBRANCH   3  10
TORSDOF 7
ENDMDL
MODEL 7
REMARK VINA RESULT:    -8.627      2.525      6.814
REMARK INTER + INTRA:         -13.750
REMARK INTER:                 -12.515
REMARK INTRA:                  -1.235
REMARK UNBOUND:                -1.593
REMARK SMILES CC(C)=CCCC(C)=CCOc1ccc2c(=O)cc(-c3ccco3)oc2c1
REMARK SMILES IDX 7 1 8 2 9 3 6 4 5 5 4 6 2 7 1 8 3 9 10 10 11 11 12 12 27 13
REMARK SMILES IDX 13 14 26 15 14 16 15 17 25 18 16 19 19 20 17 21 18 22 20 23
REMARK SMILES IDX 21 24 24 25 22 26 23 27
REMARK H PARENT
ROOT
ATOM      1  C   UNL     1     -19.294 -20.659 -12.198  1.00  0.00    -0.074 C 
ATOM      2  C   UNL     1     -19.052 -19.245 -12.656  1.00  0.00    +0.039 C 
ATOM      3  C   UNL     1     -19.743 -21.654 -12.991  1.00  0.00    +0.013 C 
ENDROOT
BRANCH   1   4
ATOM      4  C   UNL     1     -19.010 -20.920 -10.729  1.00  0.00    +0.034 C 
BRANCH   4   5
ATOM      5  C   UNL     1     -18.715 -19.635  -9.948  1.00  0.00    +0.032 C 
BRANCH   5   6
ATOM      6  C   UNL     1     -19.837 -19.297  -9.004  1.00  0.00    -0.028 C 
ATOM      7  C   UNL     1     -20.370 -18.082  -8.764  1.00  0.00    -0.080 C 
ATOM      8  C   UNL     1     -19.960 -16.808  -9.450  1.00  0.00    +0.039 C 
ATOM      9  C   UNL     1     -21.475 -17.914  -7.753  1.00  0.00    +0.039 C 
ENDBRANCH   5   6
ENDBRANCH   4   5
ENDBRANCH   1   4
BRANCH   3  10
ATOM     10  C   UNL     1     -20.160 -21.613 -14.439  1.00  0.00    +0.257 C 
BRANCH  10  11
ATOM     11  O   UNL     1     -21.542 -21.892 -14.653  1.00  0.00    -0.489 OA
BRANCH  11  12
ATOM     12  C   UNL     1     -22.428 -20.851 -14.691  1.00  0.00    +0.123 A 
ATOM     13  C   UNL     1     -21.831 -19.585 -14.712  1.00  0.00    +0.094 A 
ATOM     14  C   UNL     1     -23.821 -20.952 -14.692  1.00  0.00    +0.047 A 
ATOM     15  C   UNL     1     -22.616 -18.434 -14.743  1.00  0.00    +0.142 A 
ATOM     16  C   UNL     1     -24.611 -19.798 -14.724  1.00  0.00    +0.020 A 
ATOM     17  C   UNL     1     -24.002 -18.542 -14.751  1.00  0.00    +0.065 A 
ATOM     18  O   UNL     1     -21.963 -17.227 -14.765  1.00  0.00    -0.452 OA
ATOM     19  C   UNL     1     -24.807 -17.312 -14.785  1.00  0.00    +0.193 C 
ATOM     20  C   UNL     1     -22.727 -16.071 -14.794  1.00  0.00    +0.173 C 
ATOM     21  O   UNL     1     -26.030 -17.333 -14.796  1.00  0.00    -0.289 OA
ATOM     22  C   UNL     1     -24.066 -16.042 -14.805  1.00  0.00    +0.103 C 
BRANCH  20  23
ATOM     23  C   UNL     1     -21.977 -14.858 -14.814  1.00  0.00    +0.169 A 
ATOM     24  C   UNL     1     -21.728 -13.988 -15.873  1.00  0.00    +0.054 A 
ATOM     25  O   UNL     1     -21.342 -14.331 -13.705  1.00  0.00    -0.461 OA
ATOM     26  C   UNL     1     -20.932 -12.921 -15.393  1.00  0.00    +0.043 A 
ATOM     27  C   UNL     1     -20.725 -13.180 -14.063  1.00  0.00    +0.196 A 
ENDBRANCH  20  23
ENDBRANCH  11  12
ENDBRANCH  10  11
ENDBRANCH   3  10
TORSDOF 7
ENDMDL
MODEL 8
REMARK VINA RESULT:    -8.604      3.042      7.264
REMARK INTER + INTRA:         -13.718
REMARK INTER:                 -12.394
REMARK INTRA:                  -1.324
REMARK UNBOUND:                -1.593
REMARK SMILES CC(C)=CCCC(C)=CCOc1ccc2c(=O)cc(-c3ccco3)oc2c1
REMARK SMILES IDX 7 1 8 2 9 3 6 4 5 5 4 6 2 7 1 8 3 9 10 10 11 11 12 12 27 13
REMARK SMILES IDX 13 14 26 15 14 16 15 17 25 18 16 19 19 20 17 21 18 22 20 23
REMARK SMILES IDX 21 24 24 25 22 26 23 27
REMARK H PARENT
ROOT
ATOM      1  C   UNL     1     -23.986 -18.116 -14.696  1.00  0.00    -0.074 C 
ATOM      2  C   UNL     1     -24.840 -18.263 -13.466  1.00  0.00    +0.039 C 
ATOM      3  C   UNL     1     -23.520 -16.942 -15.169  1.00  0.00    +0.013 C 
ENDROOT
BRANCH   1   4
ATOM      4  C   UNL     1     -23.673 -19.412 -15.423  1.00  0.00    +0.034 C 
BRANCH   4   5
ATOM      5  C   UNL     1     -23.491 -20.596 -14.467  1.00  0.00    +0.032 C 
BRANCH   5   6
ATOM      6  C   UNL     1     -22.204 -21.326 -14.737  1.00  0.00    -0.028 C 
ATOM      7  C   UNL     1     -20.952 -20.924 -14.438  1.00  0.00    -0.080 C 
ATOM      8  C   UNL     1     -20.604 -19.650 -13.717  1.00  0.00    +0.039 C 
ATOM      9  C   UNL     1     -19.763 -21.768 -14.814  1.00  0.00    +0.039 C 
ENDBRANCH   5   6
ENDBRANCH   4   5
ENDBRANCH   1   4
BRANCH   3  10
ATOM     10  C   UNL     1     -23.762 -15.541 -14.667  1.00  0.00    +0.257 C 
BRANCH  10  11
ATOM     11  O   UNL     1     -22.570 -14.820 -14.363  1.00  0.00    -0.489 OA
BRANCH  11  12
ATOM     12  C   UNL     1     -22.205 -14.669 -13.054  1.00  0.00    +0.123 A 
ATOM     13  C   UNL     1     -21.749 -15.844 -12.444  1.00  0.00    +0.094 A 
ATOM     14  C   UNL     1     -22.268 -13.490 -12.310  1.00  0.00    +0.047 A 
ATOM     15  C   UNL     1     -21.352 -15.838 -11.108  1.00  0.00    +0.142 A 
ATOM     16  C   UNL     1     -21.869 -13.481 -10.968  1.00  0.00    +0.020 A 
ATOM     17  C   UNL     1     -21.410 -14.658 -10.374  1.00  0.00    +0.065 A 
ATOM     18  O   UNL     1     -20.913 -17.024 -10.575  1.00  0.00    -0.452 OA
ATOM     19  C   UNL     1     -20.984 -14.678  -8.967  1.00  0.00    +0.193 C 
ATOM     20  C   UNL     1     -20.516 -17.038  -9.249  1.00  0.00    +0.173 C 
ATOM     21  O   UNL     1     -21.007 -13.677  -8.264  1.00  0.00    -0.289 OA
ATOM     22  C   UNL     1     -20.524 -15.971  -8.439  1.00  0.00    +0.103 C 
BRANCH  20  23
ATOM     23  C   UNL     1     -20.075 -18.307  -8.767  1.00  0.00    +0.169 A 
ATOM     24  C   UNL     1     -18.908 -19.009  -9.060  1.00  0.00    +0.054 A 
ATOM     25  O   UNL     1     -20.796 -19.081  -7.877  1.00  0.00    -0.461 OA
ATOM     26  C   UNL     1     -18.926 -20.223  -8.333  1.00  0.00    +0.043 A 
ATOM     27  C   UNL     1     -20.102 -20.217  -7.628  1.00  0.00    +0.196 A 
ENDBRANCH  20  23
ENDBRANCH  11  12
ENDBRANCH  10  11
ENDBRANCH   3  10
TORSDOF 7
ENDMDL
MODEL 9
REMARK VINA RESULT:    -8.502      2.334      5.028
REMARK INTER + INTRA:         -13.574
REMARK INTER:                 -11.410
REMARK INTRA:                  -2.164
REMARK UNBOUND:                -1.593
REMARK SMILES CC(C)=CCCC(C)=CCOc1ccc2c(=O)cc(-c3ccco3)oc2c1
REMARK SMILES IDX 7 1 8 2 9 3 6 4 5 5 4 6 2 7 1 8 3 9 10 10 11 11 12 12 27 13
REMARK SMILES IDX 13 14 26 15 14 16 15 17 25 18 16 19 19 20 17 21 18 22 20 23
REMARK SMILES IDX 21 24 24 25 22 26 23 27
REMARK H PARENT
ROOT
ATOM      1  C   UNL     1     -20.069 -16.871  -8.700  1.00  0.00    -0.074 C 
ATOM      2  C   UNL     1     -21.050 -17.851  -8.111  1.00  0.00    +0.039 C 
ATOM      3  C   UNL     1     -20.294 -15.547  -8.829  1.00  0.00    +0.013 C 
ENDROOT
BRANCH   1   4
ATOM      4  C   UNL     1     -18.761 -17.476  -9.178  1.00  0.00    +0.034 C 
BRANCH   4   5
ATOM      5  C   UNL     1     -18.932 -18.331 -10.438  1.00  0.00    +0.032 C 
BRANCH   5   6
ATOM      6  C   UNL     1     -19.075 -17.475 -11.668  1.00  0.00    -0.028 C 
ATOM      7  C   UNL     1     -19.235 -17.887 -12.941  1.00  0.00    -0.080 C 
ATOM      8  C   UNL     1     -19.349 -19.323 -13.377  1.00  0.00    +0.039 C 
ATOM      9  C   UNL     1     -19.327 -16.889 -14.066  1.00  0.00    +0.039 C 
ENDBRANCH   5   6
ENDBRANCH   4   5
ENDBRANCH   1   4
BRANCH   3  10
ATOM     10  C   UNL     1     -21.529 -14.747  -8.501  1.00  0.00    +0.257 C 
BRANCH  10  11
ATOM     11  O   UNL     1     -22.705 -15.196  -9.170  1.00  0.00    -0.489 OA
BRANCH  11  12
ATOM     12  C   UNL     1     -22.717 -15.227 -10.537  1.00  0.00    +0.123 A 
ATOM     13  C   UNL     1     -22.886 -16.504 -11.083  1.00  0.00    +0.094 A 
ATOM     14  C   UNL     1     -22.560 -14.132 -11.389  1.00  0.00    +0.047 A 
ATOM     15  C   UNL     1     -22.908 -16.685 -12.465  1.00  0.00    +0.142 A 
ATOM     16  C   UNL     1     -22.583 -14.310 -12.777  1.00  0.00    +0.020 A 
ATOM     17  C   UNL     1     -22.759 -15.589 -13.308  1.00  0.00    +0.065 A 
ATOM     18  O   UNL     1     -23.080 -17.964 -12.931  1.00  0.00    -0.452 OA
ATOM     19  C   UNL     1     -22.787 -15.806 -14.762  1.00  0.00    +0.193 C 
ATOM     20  C   UNL     1     -23.103 -18.163 -14.302  1.00  0.00    +0.173 C 
ATOM     21  O   UNL     1     -22.664 -14.888 -15.561  1.00  0.00    -0.289 OA
ATOM     22  C   UNL     1     -22.972 -17.193 -15.216  1.00  0.00    +0.103 C 
BRANCH  20  23
ATOM     23  C   UNL     1     -23.285 -19.519 -14.708  1.00  0.00    +0.169 A 
ATOM     24  C   UNL     1     -22.431 -20.610 -14.561  1.00  0.00    +0.054 A 
ATOM     25  O   UNL     1     -24.416 -19.980 -15.356  1.00  0.00    -0.461 OA
ATOM     26  C   UNL     1     -23.059 -21.744 -15.127  1.00  0.00    +0.043 A 
ATOM     27  C   UNL     1     -24.268 -21.304 -15.599  1.00  0.00    +0.196 A 
ENDBRANCH  20  23
ENDBRANCH  11  12
ENDBRANCH  10  11
ENDBRANCH   3  10
TORSDOF 7
ENDMDL
