MODEL 1
REMARK VINA RESULT:    -6.735      0.000      0.000
REMARK INTER + INTRA:         -11.054
REMARK INTER:                 -11.066
REMARK INTRA:                   0.012
REMARK UNBOUND:                 0.012
REMARK SMILES CC(=O)OC1C(=O)N(CCN(C)C)c2ccccc2SC1c1ccccc1
REMARK SMILES IDX 19 1 18 2 17 3 16 4 15 5 14 6 20 7 21 8 5 9 4 11 2 12 3 13
REMARK SMILES IDX 1 14 22 15 23 16 27 17 24 18 26 19 25 20 8 21 9 22 10 23
REMARK SMILES IDX 11 24 12 25 13 26 6 27 7 28
REMARK H PARENT
REMARK Flexibility Score:   44.900
ROOT
ATOM      1  C   UNL     1      16.731   9.771  64.787  1.00  0.00    +0.032 A 
ATOM      2  C   UNL     1      15.863   8.785  65.285  1.00  0.00    +0.017 A 
ATOM      3  C   UNL     1      16.310   7.485  65.505  1.00  0.00    +0.001 A 
ATOM      4  C   UNL     1      17.623   7.151  65.204  1.00  0.00    +0.002 A 
ATOM      5  C   UNL     1      18.494   8.121  64.696  1.00  0.00    +0.027 A 
ATOM      6  C   UNL     1      18.079   9.450  64.498  1.00  0.00    +0.057 A 
ENDROOT
BRANCH   1   7
ATOM      7  S   UNL     1      15.959  11.338  64.388  1.00  0.00    -0.111 SA
BRANCH   7   8
ATOM      8  C   UNL     1      16.362  11.474  62.597  1.00  0.00    +0.132 C 
BRANCH   8   9
ATOM      9  C   UNL     1      17.816  11.850  62.292  1.00  0.00    +0.283 CG0
ATOM     10  G   UNL     1      18.651  11.711  63.572  1.00  0.00    +0.000 G0
BRANCH   9  11
ATOM     11  O   UNL     1      18.334  10.909  61.322  1.00  0.00    -0.451 OA
BRANCH  11  12
ATOM     12  C   UNL     1      18.266  11.321  60.028  1.00  0.00    +0.303 C 
ATOM     13  O   UNL     1      18.079  10.600  59.060  1.00  0.00    -0.253 OA
ATOM     14  C   UNL     1      18.486  12.800  59.952  1.00  0.00    +0.139 C 
ENDBRANCH  11  12
ENDBRANCH   9  11
ENDBRANCH   8   9
BRANCH   8  15
ATOM     15  C   UNL     1      15.345  12.380  61.904  1.00  0.00    -0.030 A 
ATOM     16  C   UNL     1      14.977  13.632  62.427  1.00  0.00    +0.005 A 
ATOM     17  C   UNL     1      14.735  11.950  60.713  1.00  0.00    +0.005 A 
ATOM     18  C   UNL     1      14.040  14.432  61.768  1.00  0.00    +0.000 A 
ATOM     19  C   UNL     1      13.799  12.752  60.058  1.00  0.00    +0.000 A 
ATOM     20  C   UNL     1      13.453  13.993  60.585  1.00  0.00    +0.000 A 
ENDBRANCH   8  15
ENDBRANCH   7   8
ENDBRANCH   1   7
BRANCH   6  21
ATOM     21  N   UNL     1      19.011  10.417  63.987  1.00  0.00    -0.307 N 
BRANCH  21  22
ATOM     22  C   UNL     1      20.419  10.036  63.797  1.00  0.00    +0.141 C 
BRANCH  22  23
ATOM     23  C   UNL     1      21.269  11.105  63.060  1.00  0.00    +0.106 C 
BRANCH  23  24
ATOM     24  N   UNL     1      21.969  10.634  61.853  1.00  0.00    -0.308 NA
ATOM     25  C   UNL     1      21.395   9.378  61.369  1.00  0.00    +0.105 C 
ATOM     26  C   UNL     1      21.953  11.636  60.787  1.00  0.00    +0.105 C 
ENDBRANCH  23  24
ENDBRANCH  22  23
ENDBRANCH  21  22
BRANCH  21  27
ATOM     27  C   UNL     1      18.646  11.715  63.605  1.00  0.00    +0.269 CG0
ATOM     28  O   UNL     1      18.924  12.716  64.270  1.00  0.00    -0.270 OA
ATOM     29  G   UNL     1      17.821  11.834  62.317  1.00  0.00    +0.000 G0
ENDBRANCH  21  27
ENDBRANCH   6  21
TORSDOF 6
ENDMDL
MODEL 2
REMARK VINA RESULT:    -6.592      1.880      2.410
REMARK INTER + INTRA:         -10.818
REMARK INTER:                 -10.239
REMARK INTRA:                  -0.580
REMARK UNBOUND:                 0.012
REMARK SMILES CC(=O)OC1C(=O)N(CCN(C)C)c2ccccc2SC1c1ccccc1
REMARK SMILES IDX 19 1 18 2 17 3 16 4 15 5 14 6 20 7 21 8 5 9 4 11 2 12 3 13
REMARK SMILES IDX 1 14 22 15 23 16 27 17 24 18 26 19 25 20 8 21 9 22 10 23
REMARK SMILES IDX 11 24 12 25 13 26 6 27 7 28
REMARK H PARENT
REMARK Flexibility Score:   44.900
ROOT
ATOM      1  C   UNL     1      16.372  10.150  63.025  1.00  0.00    +0.032 A 
ATOM      2  C   UNL     1      15.493  10.264  64.115  1.00  0.00    +0.017 A 
ATOM      3  C   UNL     1      15.977  10.452  65.407  1.00  0.00    +0.001 A 
ATOM      4  C   UNL     1      17.347  10.504  65.624  1.00  0.00    +0.002 A 
ATOM      5  C   UNL     1      18.233  10.379  64.549  1.00  0.00    +0.027 A 
ATOM      6  C   UNL     1      17.771  10.224  63.230  1.00  0.00    +0.057 A 
ENDROOT
BRANCH   1   7
ATOM      7  S   UNL     1      15.603   9.728  61.462  1.00  0.00    -0.111 SA
BRANCH   7   8
ATOM      8  C   UNL     1      16.064  11.192  60.446  1.00  0.00    +0.132 C 
BRANCH   8   9
ATOM      9  C   UNL     1      17.541  11.592  60.529  1.00  0.00    +0.283 CG0
ATOM     10  G   UNL     1      18.388  10.340  60.794  1.00  0.00    +0.000 G0
BRANCH   9  11
ATOM     11  O   UNL     1      17.938  12.131  59.246  1.00  0.00    -0.451 OA
BRANCH  11  12
ATOM     12  C   UNL     1      18.272  13.449  59.255  1.00  0.00    +0.303 C 
ATOM     13  O   UNL     1      19.223  13.939  59.846  1.00  0.00    -0.253 OA
ATOM     14  C   UNL     1      17.278  14.232  58.456  1.00  0.00    +0.139 C 
ENDBRANCH  11  12
ENDBRANCH   9  11
ENDBRANCH   8   9
BRANCH   8  15
ATOM     15  C   UNL     1      15.108  12.347  60.737  1.00  0.00    -0.030 A 
ATOM     16  C   UNL     1      13.966  12.592  59.954  1.00  0.00    +0.005 A 
ATOM     17  C   UNL     1      15.377  13.214  61.811  1.00  0.00    +0.005 A 
ATOM     18  C   UNL     1      13.117  13.661  60.247  1.00  0.00    +0.000 A 
ATOM     19  C   UNL     1      14.525  14.281  62.101  1.00  0.00    +0.000 A 
ATOM     20  C   UNL     1      13.394  14.503  61.320  1.00  0.00    +0.000 A 
ENDBRANCH   8  15
ENDBRANCH   7   8
ENDBRANCH   1   7
BRANCH   6  21
ATOM     21  N   UNL     1      18.717  10.115  62.153  1.00  0.00    -0.307 N 
BRANCH  21  22
ATOM     22  C   UNL     1      20.097   9.698  62.442  1.00  0.00    +0.141 C 
BRANCH  22  23
ATOM     23  C   UNL     1      21.145  10.832  62.287  1.00  0.00    +0.106 C 
BRANCH  23  24
ATOM     24  N   UNL     1      22.164  10.613  61.246  1.00  0.00    -0.308 NA
ATOM     25  C   UNL     1      22.184   9.214  60.816  1.00  0.00    +0.105 C 
ATOM     26  C   UNL     1      21.960  11.489  60.091  1.00  0.00    +0.105 C 
ENDBRANCH  23  24
ENDBRANCH  22  23
ENDBRANCH  21  22
BRANCH  21  27
ATOM     27  C   UNL     1      18.387  10.338  60.810  1.00  0.00    +0.269 CG0
ATOM     28  O   UNL     1      18.786   9.619  59.890  1.00  0.00    -0.270 OA
ATOM     29  G   UNL     1      17.529  11.576  60.521  1.00  0.00    +0.000 G0
ENDBRANCH  21  27
ENDBRANCH   6  21
TORSDOF 6
ENDMDL
MODEL 3
REMARK VINA RESULT:    -6.560      1.887      4.458
REMARK INTER + INTRA:         -10.767
REMARK INTER:                 -10.823
REMARK INTRA:                   0.056
REMARK UNBOUND:                 0.012
REMARK SMILES CC(=O)OC1C(=O)N(CCN(C)C)c2ccccc2SC1c1ccccc1
REMARK SMILES IDX 19 1 18 2 17 3 16 4 15 5 14 6 20 7 21 8 5 9 4 11 2 12 3 13
REMARK SMILES IDX 1 14 22 15 23 16 27 17 24 18 26 19 25 20 8 21 9 22 10 23
REMARK SMILES IDX 11 24 12 25 13 26 6 27 7 28
REMARK H PARENT
REMARK Flexibility Score:   44.900
ROOT
ATOM      1  C   UNL     1      19.269  11.023  60.558  1.00  0.00    +0.032 A 
ATOM      2  C   UNL     1      20.202  11.423  59.586  1.00  0.00    +0.017 A 
ATOM      3  C   UNL     1      21.554  11.536  59.898  1.00  0.00    +0.001 A 
ATOM      4  C   UNL     1      21.984  11.275  61.192  1.00  0.00    +0.002 A 
ATOM      5  C   UNL     1      21.063  10.888  62.171  1.00  0.00    +0.027 A 
ATOM      6  C   UNL     1      19.697  10.730  61.875  1.00  0.00    +0.057 A 
ENDROOT
BRANCH   1   7
ATOM      7  S   UNL     1      17.553  11.103  60.049  1.00  0.00    -0.111 SA
BRANCH   7   8
ATOM      8  C   UNL     1      16.878  12.273  61.300  1.00  0.00    +0.132 C 
BRANCH   8   9
ATOM      9  C   UNL     1      16.694  11.679  62.701  1.00  0.00    +0.283 CG0
ATOM     10  G   UNL     1      17.405  10.321  62.770  1.00  0.00    +0.000 G0
BRANCH   9  11
ATOM     11  O   UNL     1      17.332  12.561  63.655  1.00  0.00    -0.451 OA
BRANCH  11  12
ATOM     12  C   UNL     1      16.622  12.785  64.793  1.00  0.00    +0.303 C 
ATOM     13  O   UNL     1      17.063  12.720  65.932  1.00  0.00    -0.253 OA
ATOM     14  C   UNL     1      15.198  13.095  64.453  1.00  0.00    +0.139 C 
ENDBRANCH  11  12
ENDBRANCH   9  11
ENDBRANCH   8   9
BRANCH   8  15
ATOM     15  C   UNL     1      15.617  12.942  60.757  1.00  0.00    -0.030 A 
ATOM     16  C   UNL     1      15.445  14.337  60.763  1.00  0.00    +0.005 A 
ATOM     17  C   UNL     1      14.576  12.146  60.247  1.00  0.00    +0.005 A 
ATOM     18  C   UNL     1      14.276  14.914  60.262  1.00  0.00    +0.000 A 
ATOM     19  C   UNL     1      13.409  12.726  59.747  1.00  0.00    +0.000 A 
ATOM     20  C   UNL     1      13.260  14.110  59.753  1.00  0.00    +0.000 A 
ENDBRANCH   8  15
ENDBRANCH   7   8
ENDBRANCH   1   7
BRANCH   6  21
ATOM     21  N   UNL     1      18.788  10.317  62.909  1.00  0.00    -0.307 N 
BRANCH  21  22
ATOM     22  C   UNL     1      19.317   9.932  64.226  1.00  0.00    +0.141 C 
BRANCH  22  23
ATOM     23  C   UNL     1      19.254   8.408  64.512  1.00  0.00    +0.106 C 
BRANCH  23  24
ATOM     24  N   UNL     1      18.360   8.008  65.612  1.00  0.00    -0.308 NA
ATOM     25  C   UNL     1      17.736   9.176  66.234  1.00  0.00    +0.105 C 
ATOM     26  C   UNL     1      17.330   7.070  65.163  1.00  0.00    +0.105 C 
ENDBRANCH  23  24
ENDBRANCH  22  23
ENDBRANCH  21  22
BRANCH  21  27
ATOM     27  C   UNL     1      17.396  10.302  62.753  1.00  0.00    +0.269 CG0
ATOM     28  O   UNL     1      16.745   9.264  62.612  1.00  0.00    -0.270 OA
ATOM     29  G   UNL     1      16.705  11.672  62.713  1.00  0.00    +0.000 G0
ENDBRANCH  21  27
ENDBRANCH   6  21
TORSDOF 6
ENDMDL
MODEL 4
REMARK VINA RESULT:    -6.471      2.292      5.329
REMARK INTER + INTRA:         -10.619
REMARK INTER:                 -10.644
REMARK INTRA:                   0.024
REMARK UNBOUND:                 0.012
REMARK SMILES CC(=O)OC1C(=O)N(CCN(C)C)c2ccccc2SC1c1ccccc1
REMARK SMILES IDX 19 1 18 2 17 3 16 4 15 5 14 6 20 7 21 8 5 9 4 11 2 12 3 13
REMARK SMILES IDX 1 14 22 15 23 16 27 17 24 18 26 19 25 20 8 21 9 22 10 23
REMARK SMILES IDX 11 24 12 25 13 26 6 27 7 28
REMARK H PARENT
REMARK Flexibility Score:   44.900
ROOT
ATOM      1  C   UNL     1      17.664  12.359  63.765  1.00  0.00    +0.032 A 
ATOM      2  C   UNL     1      16.649  12.480  64.730  1.00  0.00    +0.017 A 
ATOM      3  C   UNL     1      15.426  13.065  64.413  1.00  0.00    +0.001 A 
ATOM      4  C   UNL     1      15.215  13.558  63.133  1.00  0.00    +0.002 A 
ATOM      5  C   UNL     1      16.221  13.455  62.166  1.00  0.00    +0.027 A 
ATOM      6  C   UNL     1      17.452  12.837  62.449  1.00  0.00    +0.057 A 
ENDROOT
BRANCH   1   7
ATOM      7  S   UNL     1      19.235  11.753  64.378  1.00  0.00    -0.111 SA
BRANCH   7   8
ATOM      8  C   UNL     1      19.422  10.216  63.382  1.00  0.00    +0.132 C 
BRANCH   8   9
ATOM      9  C   UNL     1      19.039  10.357  61.905  1.00  0.00    +0.283 CG0
ATOM     10  G   UNL     1      19.443  11.753  61.411  1.00  0.00    +0.000 G0
BRANCH   9  11
ATOM     11  O   UNL     1      19.795   9.384  61.145  1.00  0.00    -0.451 OA
BRANCH  11  12
ATOM     12  C   UNL     1      19.045   8.521  60.410  1.00  0.00    +0.303 C 
ATOM     13  O   UNL     1      17.935   8.754  59.952  1.00  0.00    -0.253 OA
ATOM     14  C   UNL     1      19.762   7.216  60.264  1.00  0.00    +0.139 C 
ENDBRANCH  11  12
ENDBRANCH   9  11
ENDBRANCH   8   9
BRANCH   8  15
ATOM     15  C   UNL     1      18.716   9.056  64.082  1.00  0.00    -0.030 A 
ATOM     16  C   UNL     1      17.339   9.074  64.362  1.00  0.00    +0.005 A 
ATOM     17  C   UNL     1      19.463   7.934  64.483  1.00  0.00    +0.005 A 
ATOM     18  C   UNL     1      16.728   7.997  65.008  1.00  0.00    +0.000 A 
ATOM     19  C   UNL     1      18.849   6.859  65.129  1.00  0.00    +0.000 A 
ATOM     20  C   UNL     1      17.481   6.890  65.389  1.00  0.00    +0.000 A 
ENDBRANCH   8  15
ENDBRANCH   7   8
ENDBRANCH   1   7
BRANCH   6  21
ATOM     21  N   UNL     1      18.452  12.740  61.422  1.00  0.00    -0.307 N 
BRANCH  21  22
ATOM     22  C   UNL     1      18.495  13.752  60.355  1.00  0.00    +0.141 C 
BRANCH  22  23
ATOM     23  C   UNL     1      18.181  13.193  58.941  1.00  0.00    +0.106 C 
BRANCH  23  24
ATOM     24  N   UNL     1      16.840  13.507  58.421  1.00  0.00    -0.308 NA
ATOM     25  C   UNL     1      15.940  12.361  58.563  1.00  0.00    +0.105 C 
ATOM     26  C   UNL     1      16.262  14.681  59.075  1.00  0.00    +0.105 C 
ENDBRANCH  23  24
ENDBRANCH  22  23
ENDBRANCH  21  22
BRANCH  21  27
ATOM     27  C   UNL     1      19.441  11.748  61.398  1.00  0.00    +0.269 CG0
ATOM     28  O   UNL     1      20.577  11.940  60.954  1.00  0.00    -0.270 OA
ATOM     29  G   UNL     1      19.025  10.365  61.915  1.00  0.00    +0.000 G0
ENDBRANCH  21  27
ENDBRANCH   6  21
TORSDOF 6
ENDMDL
MODEL 5
REMARK VINA RESULT:    -6.452      2.084      4.783
REMARK INTER + INTRA:         -10.588
REMARK INTER:                 -10.540
REMARK INTRA:                  -0.049
REMARK UNBOUND:                 0.012
REMARK SMILES CC(=O)OC1C(=O)N(CCN(C)C)c2ccccc2SC1c1ccccc1
REMARK SMILES IDX 19 1 18 2 17 3 16 4 15 5 14 6 20 7 21 8 5 9 4 11 2 12 3 13
REMARK SMILES IDX 1 14 22 15 23 16 27 17 24 18 26 19 25 20 8 21 9 22 10 23
REMARK SMILES IDX 11 24 12 25 13 26 6 27 7 28
REMARK H PARENT
REMARK Flexibility Score:   44.900
ROOT
ATOM      1  C   UNL     1      17.126  12.811  63.263  1.00  0.00    +0.032 A 
ATOM      2  C   UNL     1      15.925  13.477  63.565  1.00  0.00    +0.017 A 
ATOM      3  C   UNL     1      14.984  13.738  62.573  1.00  0.00    +0.001 A 
ATOM      4  C   UNL     1      15.244  13.359  61.264  1.00  0.00    +0.002 A 
ATOM      5  C   UNL     1      16.441  12.706  60.948  1.00  0.00    +0.027 A 
ATOM      6  C   UNL     1      17.393  12.398  61.935  1.00  0.00    +0.057 A 
ENDROOT
BRANCH   1   7
ATOM      7  S   UNL     1      18.307  12.715  64.607  1.00  0.00    -0.111 SA
BRANCH   7   8
ATOM      8  C   UNL     1      18.516  10.892  64.751  1.00  0.00    +0.132 C 
BRANCH   8   9
ATOM      9  C   UNL     1      19.103  10.213  63.509  1.00  0.00    +0.283 CG0
ATOM     10  G   UNL     1      19.539  11.288  62.505  1.00  0.00    +0.000 G0
BRANCH   9  11
ATOM     11  O   UNL     1      20.284   9.478  63.910  1.00  0.00    -0.451 OA
BRANCH  11  12
ATOM     12  C   UNL     1      20.135   8.127  63.944  1.00  0.00    +0.303 C 
ATOM     13  O   UNL     1      19.215   7.525  64.479  1.00  0.00    -0.253 OA
ATOM     14  C   UNL     1      21.289   7.468  63.255  1.00  0.00    +0.139 C 
ENDBRANCH  11  12
ENDBRANCH   9  11
ENDBRANCH   8   9
BRANCH   8  15
ATOM     15  C   UNL     1      17.211  10.257  65.228  1.00  0.00    -0.030 A 
ATOM     16  C   UNL     1      16.972   9.956  66.580  1.00  0.00    +0.005 A 
ATOM     17  C   UNL     1      16.214   9.939  64.289  1.00  0.00    +0.005 A 
ATOM     18  C   UNL     1      15.768   9.371  66.979  1.00  0.00    +0.000 A 
ATOM     19  C   UNL     1      15.011   9.354  64.691  1.00  0.00    +0.000 A 
ATOM     20  C   UNL     1      14.789   9.072  66.036  1.00  0.00    +0.000 A 
ENDBRANCH   8  15
ENDBRANCH   7   8
ENDBRANCH   1   7
BRANCH   6  21
ATOM     21  N   UNL     1      18.602  11.713  61.568  1.00  0.00    -0.307 N 
BRANCH  21  22
ATOM     22  C   UNL     1      18.907  11.494  60.147  1.00  0.00    +0.141 C 
BRANCH  22  23
ATOM     23  C   UNL     1      19.181  10.011  59.781  1.00  0.00    +0.106 C 
BRANCH  23  24
ATOM     24  N   UNL     1      20.329   9.782  58.886  1.00  0.00    -0.308 NA
ATOM     25  C   UNL     1      20.905  11.050  58.436  1.00  0.00    +0.105 C 
ATOM     26  C   UNL     1      21.359   8.960  59.520  1.00  0.00    +0.105 C 
ENDBRANCH  23  24
ENDBRANCH  22  23
ENDBRANCH  21  22
BRANCH  21  27
ATOM     27  C   UNL     1      19.554  11.275  62.498  1.00  0.00    +0.269 CG0
ATOM     28  O   UNL     1      20.723  11.672  62.503  1.00  0.00    -0.270 OA
ATOM     29  G   UNL     1      19.082  10.216  63.503  1.00  0.00    +0.000 G0
ENDBRANCH  21  27
ENDBRANCH   6  21
TORSDOF 6
ENDMDL
MODEL 6
REMARK VINA RESULT:    -6.432      3.274      5.423
REMARK INTER + INTRA:         -10.556
REMARK INTER:                 -10.302
REMARK INTRA:                  -0.255
REMARK UNBOUND:                 0.012
REMARK SMILES CC(=O)OC1C(=O)N(CCN(C)C)c2ccccc2SC1c1ccccc1
REMARK SMILES IDX 19 1 18 2 17 3 16 4 15 5 14 6 20 7 21 8 5 9 4 11 2 12 3 13
REMARK SMILES IDX 1 14 22 15 23 16 27 17 24 18 26 19 25 20 8 21 9 22 10 23
REMARK SMILES IDX 11 24 12 25 13 26 6 27 7 28
REMARK H PARENT
REMARK Flexibility Score:   44.900
ROOT
ATOM      1  C   UNL     1      19.822  10.053  61.283  1.00  0.00    +0.032 A 
ATOM      2  C   UNL     1      19.401  11.125  60.477  1.00  0.00    +0.017 A 
ATOM      3  C   UNL     1      18.872  10.900  59.209  1.00  0.00    +0.001 A 
ATOM      4  C   UNL     1      18.782   9.603  58.724  1.00  0.00    +0.002 A 
ATOM      5  C   UNL     1      19.209   8.529  59.512  1.00  0.00    +0.027 A 
ATOM      6  C   UNL     1      19.714   8.724  60.810  1.00  0.00    +0.057 A 
ENDROOT
BRANCH   1   7
ATOM      7  S   UNL     1      20.645  10.519  62.805  1.00  0.00    -0.111 SA
BRANCH   7   8
ATOM      8  C   UNL     1      19.522   9.759  64.050  1.00  0.00    +0.132 C 
BRANCH   8   9
ATOM      9  C   UNL     1      19.242   8.268  63.837  1.00  0.00    +0.283 CG0
ATOM     10  G   UNL     1      20.362   7.662  62.982  1.00  0.00    +0.000 G0
BRANCH   9  11
ATOM     11  O   UNL     1      19.267   7.612  65.128  1.00  0.00    -0.451 OA
BRANCH  11  12
ATOM     12  C   UNL     1      18.136   6.930  65.448  1.00  0.00    +0.303 C 
ATOM     13  O   UNL     1      17.877   5.783  65.113  1.00  0.00    -0.253 OA
ATOM     14  C   UNL     1      17.223   7.803  66.250  1.00  0.00    +0.139 C 
ENDBRANCH  11  12
ENDBRANCH   9  11
ENDBRANCH   8   9
BRANCH   8  15
ATOM     15  C   UNL     1      18.253  10.600  64.183  1.00  0.00    -0.030 A 
ATOM     16  C   UNL     1      18.203  11.766  64.967  1.00  0.00    +0.005 A 
ATOM     17  C   UNL     1      17.082  10.193  63.520  1.00  0.00    +0.005 A 
ATOM     18  C   UNL     1      17.024  12.507  65.069  1.00  0.00    +0.000 A 
ATOM     19  C   UNL     1      15.904  10.936  63.624  1.00  0.00    +0.000 A 
ATOM     20  C   UNL     1      15.877  12.094  64.398  1.00  0.00    +0.000 A 
ENDBRANCH   8  15
ENDBRANCH   7   8
ENDBRANCH   1   7
BRANCH   6  21
ATOM     21  N   UNL     1      20.127   7.590  61.590  1.00  0.00    -0.307 N 
BRANCH  21  22
ATOM     22  C   UNL     1      20.364   6.300  60.924  1.00  0.00    +0.141 C 
BRANCH  22  23
ATOM     23  C   UNL     1      21.789   6.148  60.328  1.00  0.00    +0.106 C 
BRANCH  23  24
ATOM     24  N   UNL     1      21.864   6.163  58.857  1.00  0.00    -0.308 NA
ATOM     25  C   UNL     1      22.627   7.318  58.382  1.00  0.00    +0.105 C 
ATOM     26  C   UNL     1      22.444   4.928  58.329  1.00  0.00    +0.105 C 
ENDBRANCH  23  24
ENDBRANCH  22  23
ENDBRANCH  21  22
BRANCH  21  27
ATOM     27  C   UNL     1      20.372   7.648  62.968  1.00  0.00    +0.269 CG0
ATOM     28  O   UNL     1      21.403   7.215  63.488  1.00  0.00    -0.270 OA
ATOM     29  G   UNL     1      19.251   8.244  63.830  1.00  0.00    +0.000 G0
ENDBRANCH  21  27
ENDBRANCH   6  21
TORSDOF 6
ENDMDL
MODEL 7
REMARK VINA RESULT:    -6.298      2.358      5.220
REMARK INTER + INTRA:         -10.336
REMARK INTER:                 -10.432
REMARK INTRA:                   0.097
REMARK UNBOUND:                 0.012
REMARK SMILES CC(=O)OC1C(=O)N(CCN(C)C)c2ccccc2SC1c1ccccc1
REMARK SMILES IDX 19 1 18 2 17 3 16 4 15 5 14 6 20 7 21 8 5 9 4 11 2 12 3 13
REMARK SMILES IDX 1 14 22 15 23 16 27 17 24 18 26 19 25 20 8 21 9 22 10 23
REMARK SMILES IDX 11 24 12 25 13 26 6 27 7 28
REMARK H PARENT
REMARK Flexibility Score:   44.900
ROOT
ATOM      1  C   UNL     1      17.746  11.339  62.365  1.00  0.00    +0.032 A 
ATOM      2  C   UNL     1      16.355  11.407  62.558  1.00  0.00    +0.017 A 
ATOM      3  C   UNL     1      15.475  11.135  61.514  1.00  0.00    +0.001 A 
ATOM      4  C   UNL     1      15.977  10.816  60.260  1.00  0.00    +0.002 A 
ATOM      5  C   UNL     1      17.359  10.757  60.052  1.00  0.00    +0.027 A 
ATOM      6  C   UNL     1      18.270  10.992  61.097  1.00  0.00    +0.057 A 
ENDROOT
BRANCH   1   7
ATOM      7  S   UNL     1      18.737  11.895  63.750  1.00  0.00    -0.111 SA
BRANCH   7   8
ATOM      8  C   UNL     1      19.670  10.358  64.143  1.00  0.00    +0.132 C 
BRANCH   8   9
ATOM      9  C   UNL     1      20.375   9.710  62.946  1.00  0.00    +0.283 CG0
ATOM     10  G   UNL     1      20.641  10.781  61.879  1.00  0.00    +0.000 G0
BRANCH   9  11
ATOM     11  O   UNL     1      21.656   9.204  63.392  1.00  0.00    -0.451 OA
BRANCH  11  12
ATOM     12  C   UNL     1      22.121   8.130  62.701  1.00  0.00    +0.303 C 
ATOM     13  O   UNL     1      23.221   8.044  62.175  1.00  0.00    -0.253 OA
ATOM     14  C   UNL     1      21.071   7.065  62.645  1.00  0.00    +0.139 C 
ENDBRANCH  11  12
ENDBRANCH   9  11
ENDBRANCH   8   9
BRANCH   8  15
ATOM     15  C   UNL     1      18.774   9.389  64.912  1.00  0.00    -0.030 A 
ATOM     16  C   UNL     1      18.858   7.996  64.748  1.00  0.00    +0.005 A 
ATOM     17  C   UNL     1      17.813   9.898  65.804  1.00  0.00    +0.005 A 
ATOM     18  C   UNL     1      18.019   7.141  65.465  1.00  0.00    +0.000 A 
ATOM     19  C   UNL     1      16.975   9.040  66.519  1.00  0.00    +0.000 A 
ATOM     20  C   UNL     1      17.080   7.662  66.351  1.00  0.00    +0.000 A 
ENDBRANCH   8  15
ENDBRANCH   7   8
ENDBRANCH   1   7
BRANCH   6  21
ATOM     21  N   UNL     1      19.682  10.907  60.842  1.00  0.00    -0.307 N 
BRANCH  21  22
ATOM     22  C   UNL     1      20.175  11.007  59.461  1.00  0.00    +0.141 C 
BRANCH  22  23
ATOM     23  C   UNL     1      20.505   9.639  58.806  1.00  0.00    +0.106 C 
BRANCH  23  24
ATOM     24  N   UNL     1      21.773   9.022  59.234  1.00  0.00    -0.308 NA
ATOM     25  C   UNL     1      21.834   7.616  58.835  1.00  0.00    +0.105 C 
ATOM     26  C   UNL     1      22.933   9.743  58.711  1.00  0.00    +0.105 C 
ENDBRANCH  23  24
ENDBRANCH  22  23
ENDBRANCH  21  22
BRANCH  21  27
ATOM     27  C   UNL     1      20.643  10.780  61.854  1.00  0.00    +0.269 CG0
ATOM     28  O   UNL     1      21.687  11.438  61.878  1.00  0.00    -0.270 OA
ATOM     29  G   UNL     1      20.357   9.724  62.930  1.00  0.00    +0.000 G0
ENDBRANCH  21  27
ENDBRANCH   6  21
TORSDOF 6
ENDMDL
MODEL 8
REMARK VINA RESULT:    -6.250      1.770      2.149
REMARK INTER + INTRA:         -10.256
REMARK INTER:                 -10.597
REMARK INTRA:                   0.341
REMARK UNBOUND:                 0.012
REMARK SMILES CC(=O)OC1C(=O)N(CCN(C)C)c2ccccc2SC1c1ccccc1
REMARK SMILES IDX 19 1 18 2 17 3 16 4 15 5 14 6 20 7 21 8 5 9 4 11 2 12 3 13
REMARK SMILES IDX 1 14 22 15 23 16 27 17 24 18 26 19 25 20 8 21 9 22 10 23
REMARK SMILES IDX 11 24 12 25 13 26 6 27 7 28
REMARK H PARENT
REMARK Flexibility Score:   44.900
ROOT
ATOM      1  C   UNL     1      18.068   9.279  65.038  1.00  0.00    +0.032 A 
ATOM      2  C   UNL     1      17.348   8.629  66.056  1.00  0.00    +0.017 A 
ATOM      3  C   UNL     1      17.494   7.262  66.273  1.00  0.00    +0.001 A 
ATOM      4  C   UNL     1      18.342   6.525  65.459  1.00  0.00    +0.002 A 
ATOM      5  C   UNL     1      19.055   7.158  64.435  1.00  0.00    +0.027 A 
ATOM      6  C   UNL     1      18.955   8.543  64.216  1.00  0.00    +0.057 A 
ENDROOT
BRANCH   1   7
ATOM      7  S   UNL     1      17.633  10.996  64.770  1.00  0.00    -0.111 SA
BRANCH   7   8
ATOM      8  C   UNL     1      17.073  10.939  63.017  1.00  0.00    +0.132 C 
BRANCH   8   9
ATOM      9  C   UNL     1      18.197  10.776  61.988  1.00  0.00    +0.283 CG0
ATOM     10  G   UNL     1      19.511  10.476  62.722  1.00  0.00    +0.000 G0
BRANCH   9  11
ATOM     11  O   UNL     1      17.886   9.635  61.154  1.00  0.00    -0.451 OA
BRANCH  11  12
ATOM     12  C   UNL     1      17.683   9.923  59.841  1.00  0.00    +0.303 C 
ATOM     13  O   UNL     1      18.369  10.672  59.162  1.00  0.00    -0.253 OA
ATOM     14  C   UNL     1      16.465   9.209  59.344  1.00  0.00    +0.139 C 
ENDBRANCH  11  12
ENDBRANCH   9  11
ENDBRANCH   8   9
BRANCH   8  15
ATOM     15  C   UNL     1      16.155  12.125  62.727  1.00  0.00    -0.030 A 
ATOM     16  C   UNL     1      15.713  12.997  63.738  1.00  0.00    +0.005 A 
ATOM     17  C   UNL     1      15.715  12.353  61.412  1.00  0.00    +0.005 A 
ATOM     18  C   UNL     1      14.870  14.069  63.436  1.00  0.00    +0.000 A 
ATOM     19  C   UNL     1      14.873  13.426  61.114  1.00  0.00    +0.000 A 
ATOM     20  C   UNL     1      14.452  14.285  62.126  1.00  0.00    +0.000 A 
ENDBRANCH   8  15
ENDBRANCH   7   8
ENDBRANCH   1   7
BRANCH   6  21
ATOM     21  N   UNL     1      19.717   9.154  63.161  1.00  0.00    -0.307 N 
BRANCH  21  22
ATOM     22  C   UNL     1      20.722   8.359  62.441  1.00  0.00    +0.141 C 
BRANCH  22  23
ATOM     23  C   UNL     1      22.075   8.222  63.190  1.00  0.00    +0.106 C 
BRANCH  23  24
ATOM     24  N   UNL     1      23.115   7.457  62.481  1.00  0.00    -0.308 NA
ATOM     25  C   UNL     1      23.516   6.278  63.251  1.00  0.00    +0.105 C 
ATOM     26  C   UNL     1      22.681   7.056  61.143  1.00  0.00    +0.105 C 
ENDBRANCH  23  24
ENDBRANCH  22  23
ENDBRANCH  21  22
BRANCH  21  27
ATOM     27  C   UNL     1      19.524  10.474  62.735  1.00  0.00    +0.269 CG0
ATOM     28  O   UNL     1      20.335  11.378  62.955  1.00  0.00    -0.270 OA
ATOM     29  G   UNL     1      18.205  10.765  62.008  1.00  0.00    +0.000 G0
ENDBRANCH  21  27
ENDBRANCH   6  21
TORSDOF 6
ENDMDL
MODEL 9
REMARK VINA RESULT:    -5.960      2.226      5.277
REMARK INTER + INTRA:          -9.781
REMARK INTER:                  -9.371
REMARK INTRA:                  -0.410
REMARK UNBOUND:                 0.012
REMARK SMILES CC(=O)OC1C(=O)N(CCN(C)C)c2ccccc2SC1c1ccccc1
REMARK SMILES IDX 19 1 18 2 17 3 16 4 15 5 14 6 20 7 21 8 5 9 4 11 2 12 3 13
REMARK SMILES IDX 1 14 22 15 23 16 27 17 24 18 26 19 25 20 8 21 9 22 10 23
REMARK SMILES IDX 11 24 12 25 13 26 6 27 7 28
REMARK H PARENT
REMARK Flexibility Score:   44.900
ROOT
ATOM      1  C   UNL     1      17.722  10.820  64.558  1.00  0.00    +0.032 A 
ATOM      2  C   UNL     1      17.721   9.968  65.676  1.00  0.00    +0.017 A 
ATOM      3  C   UNL     1      16.592   9.220  66.003  1.00  0.00    +0.001 A 
ATOM      4  C   UNL     1      15.445   9.337  65.230  1.00  0.00    +0.002 A 
ATOM      5  C   UNL     1      15.430  10.191  64.122  1.00  0.00    +0.027 A 
ATOM      6  C   UNL     1      16.567  10.930  63.748  1.00  0.00    +0.057 A 
ENDROOT
BRANCH   1   7
ATOM      7  S   UNL     1      19.181  11.846  64.381  1.00  0.00    -0.111 SA
BRANCH   7   8
ATOM      8  C   UNL     1      19.781  11.306  62.727  1.00  0.00    +0.132 C 
BRANCH   8   9
ATOM      9  C   UNL     1      18.776  11.496  61.585  1.00  0.00    +0.283 CG0
ATOM     10  G   UNL     1      17.643  12.416  62.060  1.00  0.00    +0.000 G0
BRANCH   9  11
ATOM     11  O   UNL     1      19.453  12.158  60.490  1.00  0.00    -0.451 OA
BRANCH  11  12
ATOM     12  C   UNL     1      20.130  11.330  59.650  1.00  0.00    +0.303 C 
ATOM     13  O   UNL     1      21.344  11.190  59.614  1.00  0.00    -0.253 OA
ATOM     14  C   UNL     1      19.170  10.629  58.740  1.00  0.00    +0.139 C 
ENDBRANCH  11  12
ENDBRANCH   9  11
ENDBRANCH   8   9
BRANCH   8  15
ATOM     15  C   UNL     1      20.335   9.885  62.814  1.00  0.00    -0.030 A 
ATOM     16  C   UNL     1      19.542   8.753  62.559  1.00  0.00    +0.005 A 
ATOM     17  C   UNL     1      21.678   9.689  63.181  1.00  0.00    +0.005 A 
ATOM     18  C   UNL     1      20.081   7.468  62.654  1.00  0.00    +0.000 A 
ATOM     19  C   UNL     1      22.214   8.403  63.274  1.00  0.00    +0.000 A 
ATOM     20  C   UNL     1      21.415   7.293  63.009  1.00  0.00    +0.000 A 
ENDBRANCH   8  15
ENDBRANCH   7   8
ENDBRANCH   1   7
BRANCH   6  21
ATOM     21  N   UNL     1      16.511  11.785  62.594  1.00  0.00    -0.307 N 
BRANCH  21  22
ATOM     22  C   UNL     1      15.212  12.075  61.970  1.00  0.00    +0.141 C 
BRANCH  22  23
ATOM     23  C   UNL     1      15.189  11.872  60.432  1.00  0.00    +0.106 C 
BRANCH  23  24
ATOM     24  N   UNL     1      14.835  13.064  59.642  1.00  0.00    -0.308 NA
ATOM     25  C   UNL     1      14.520  14.197  60.512  1.00  0.00    +0.105 C 
ATOM     26  C   UNL     1      15.898  13.432  58.706  1.00  0.00    +0.105 C 
ENDBRANCH  23  24
ENDBRANCH  22  23
ENDBRANCH  21  22
BRANCH  21  27
ATOM     27  C   UNL     1      17.636  12.412  62.043  1.00  0.00    +0.269 CG0
ATOM     28  O   UNL     1      17.713  13.632  61.877  1.00  0.00    -0.270 OA
ATOM     29  G   UNL     1      18.776  11.487  61.596  1.00  0.00    +0.000 G0
ENDBRANCH  21  27
ENDBRANCH   6  21
TORSDOF 6
ENDMDL
