MODEL 1
REMARK VINA RESULT:    -7.103      0.000      0.000
REMARK INTER + INTRA:         -10.370
REMARK INTER:                  -9.386
REMARK INTRA:                  -0.984
REMARK UNBOUND:                -0.984
REMARK SMILES O=C(O)COc1ccc(Cl)cc1C(=O)c1cccs1
REMARK SMILES IDX 5 1 6 2 9 3 11 4 8 5 12 6 7 7 10 8 13 9 14 10 15 11 16 12
REMARK SMILES IDX 19 13 17 14 18 15 4 16 2 17 1 18 3 19
REMARK H PARENT 3 20
ROOT
ATOM      1  O   UNL     1      17.103   8.130  64.328  1.00  0.00    -0.481 OA
ENDROOT
BRANCH   1   2
ATOM      2  C   UNL     1      18.401   8.195  63.900  1.00  0.00    +0.131 A 
ATOM      3  C   UNL     1      21.075   8.323  63.126  1.00  0.00    +0.042 A 
ATOM      4  C   UNL     1      20.200   9.332  62.728  1.00  0.00    +0.036 A 
ATOM      5  C   UNL     1      20.628   7.265  63.920  1.00  0.00    +0.024 A 
ATOM      6  C   UNL     1      18.864   9.271  63.135  1.00  0.00    +0.067 A 
ATOM      7  C   UNL     1      19.289   7.204  64.313  1.00  0.00    +0.049 A 
ATOM      8 Cl   UNL     1      22.724   8.387  62.642  1.00  0.00    -0.084 Cl
BRANCH   6   9
ATOM      9  C   UNL     1      17.937  10.339  62.719  1.00  0.00    +0.206 C 
ATOM     10  O   UNL     1      17.648  10.364  61.522  1.00  0.00    -0.288 OA
BRANCH   9  11
ATOM     11  C   UNL     1      17.430  11.296  63.691  1.00  0.00    +0.075 A 
ATOM     12  C   UNL     1      18.141  11.845  64.744  1.00  0.00    +0.024 A 
ATOM     13  S   UNL     1      15.829  11.902  63.650  1.00  0.00    -0.140 S 
ATOM     14  C   UNL     1      17.365  12.756  65.516  1.00  0.00    +0.012 A 
ATOM     15  C   UNL     1      16.084  12.879  65.028  1.00  0.00    +0.065 A 
ENDBRANCH   9  11
ENDBRANCH   6   9
ENDBRANCH   1   2
BRANCH   1  16
ATOM     16  C   UNL     1      17.023   7.759  65.708  1.00  0.00    +0.351 C 
BRANCH  16  17
ATOM     17  C   UNL     1      16.737   8.949  66.607  1.00  0.00    +0.341 C 
ATOM     18  O   UNL     1      15.683   9.551  66.740  1.00  0.00    -0.248 OA
BRANCH  17  19
ATOM     19  O   UNL     1      17.828   9.339  67.302  1.00  0.00    -0.479 OA
ATOM     20  H   UNL     1      18.464   9.619  66.610  1.00  0.00    +0.296 HD
ENDBRANCH  17  19
ENDBRANCH  16  17
ENDBRANCH   1  16
TORSDOF 6
ENDMDL
MODEL 2
REMARK VINA RESULT:    -6.885      3.046      4.850
REMARK INTER + INTRA:         -10.082
REMARK INTER:                  -9.365
REMARK INTRA:                  -0.717
REMARK UNBOUND:                -0.984
REMARK SMILES O=C(O)COc1ccc(Cl)cc1C(=O)c1cccs1
REMARK SMILES IDX 5 1 6 2 9 3 11 4 8 5 12 6 7 7 10 8 13 9 14 10 15 11 16 12
REMARK SMILES IDX 19 13 17 14 18 15 4 16 2 17 1 18 3 19
REMARK H PARENT 3 20
ROOT
ATOM      1  O   UNL     1      17.086  11.173  65.572  1.00  0.00    -0.481 OA
ENDROOT
BRANCH   1   2
ATOM      2  C   UNL     1      16.564  11.861  64.510  1.00  0.00    +0.131 A 
ATOM      3  C   UNL     1      15.409  13.242  62.383  1.00  0.00    +0.042 A 
ATOM      4  C   UNL     1      16.287  12.193  62.120  1.00  0.00    +0.036 A 
ATOM      5  C   UNL     1      15.092  13.592  63.697  1.00  0.00    +0.024 A 
ATOM      6  C   UNL     1      16.849  11.492  63.192  1.00  0.00    +0.067 A 
ATOM      7  C   UNL     1      15.665  12.896  64.764  1.00  0.00    +0.049 A 
ATOM      8 Cl   UNL     1      14.702  14.108  61.076  1.00  0.00    -0.084 Cl
BRANCH   6   9
ATOM      9  C   UNL     1      17.776  10.380  62.915  1.00  0.00    +0.206 C 
ATOM     10  O   UNL     1      17.255   9.280  62.726  1.00  0.00    -0.288 OA
BRANCH   9  11
ATOM     11  C   UNL     1      19.213  10.606  62.893  1.00  0.00    +0.075 A 
ATOM     12  C   UNL     1      20.102  10.317  63.913  1.00  0.00    +0.024 A 
ATOM     13  S   UNL     1      20.027  11.276  61.543  1.00  0.00    -0.140 S 
ATOM     14  C   UNL     1      21.447  10.652  63.584  1.00  0.00    +0.012 A 
ATOM     15  C   UNL     1      21.547  11.185  62.319  1.00  0.00    +0.065 A 
ENDBRANCH   9  11
ENDBRANCH   6   9
ENDBRANCH   1   2
BRANCH   1  16
ATOM     16  C   UNL     1      16.187  10.157  66.031  1.00  0.00    +0.351 C 
BRANCH  16  17
ATOM     17  C   UNL     1      16.897   8.843  66.306  1.00  0.00    +0.341 C 
ATOM     18  O   UNL     1      16.686   7.756  65.792  1.00  0.00    -0.248 OA
BRANCH  17  19
ATOM     19  O   UNL     1      17.855   8.968  67.250  1.00  0.00    -0.479 OA
ATOM     20  H   UNL     1      18.392   8.153  67.155  1.00  0.00    +0.296 HD
ENDBRANCH  17  19
ENDBRANCH  16  17
ENDBRANCH   1  16
TORSDOF 6
ENDMDL
MODEL 3
REMARK VINA RESULT:    -6.745      2.854      4.588
REMARK INTER + INTRA:          -9.897
REMARK INTER:                  -9.086
REMARK INTRA:                  -0.811
REMARK UNBOUND:                -0.984
REMARK SMILES O=C(O)COc1ccc(Cl)cc1C(=O)c1cccs1
REMARK SMILES IDX 5 1 6 2 9 3 11 4 8 5 12 6 7 7 10 8 13 9 14 10 15 11 16 12
REMARK SMILES IDX 19 13 17 14 18 15 4 16 2 17 1 18 3 19
REMARK H PARENT 3 20
ROOT
ATOM      1  O   UNL     1      16.870   8.804  63.897  1.00  0.00    -0.481 OA
ENDROOT
BRANCH   1   2
ATOM      2  C   UNL     1      16.763   9.977  63.201  1.00  0.00    +0.131 A 
ATOM      3  C   UNL     1      16.537  12.313  61.698  1.00  0.00    +0.042 A 
ATOM      4  C   UNL     1      17.656  12.128  62.508  1.00  0.00    +0.036 A 
ATOM      5  C   UNL     1      15.543  11.335  61.621  1.00  0.00    +0.024 A 
ATOM      6  C   UNL     1      17.772  10.945  63.245  1.00  0.00    +0.067 A 
ATOM      7  C   UNL     1      15.660  10.161  62.369  1.00  0.00    +0.049 A 
ATOM      8 Cl   UNL     1      16.383  13.758  60.777  1.00  0.00    -0.084 Cl
BRANCH   6   9
ATOM      9  C   UNL     1      18.956  10.745  64.099  1.00  0.00    +0.206 C 
ATOM     10  O   UNL     1      18.947  11.338  65.179  1.00  0.00    -0.288 OA
BRANCH   9  11
ATOM     11  C   UNL     1      20.056   9.905  63.650  1.00  0.00    +0.075 A 
ATOM     12  C   UNL     1      20.218   8.557  63.922  1.00  0.00    +0.024 A 
ATOM     13  S   UNL     1      21.337  10.493  62.678  1.00  0.00    -0.140 S 
ATOM     14  C   UNL     1      21.398   8.016  63.335  1.00  0.00    +0.012 A 
ATOM     15  C   UNL     1      22.101   8.965  62.630  1.00  0.00    +0.065 A 
ENDBRANCH   9  11
ENDBRANCH   6   9
ENDBRANCH   1   2
BRANCH   1  16
ATOM     16  C   UNL     1      16.348   8.931  65.224  1.00  0.00    +0.351 C 
BRANCH  16  17
ATOM     17  C   UNL     1      17.245   8.276  66.259  1.00  0.00    +0.341 C 
ATOM     18  O   UNL     1      17.476   7.087  66.405  1.00  0.00    -0.248 OA
BRANCH  17  19
ATOM     19  O   UNL     1      17.811   9.180  67.089  1.00  0.00    -0.479 OA
ATOM     20  H   UNL     1      18.457   9.653  66.523  1.00  0.00    +0.296 HD
ENDBRANCH  17  19
ENDBRANCH  16  17
ENDBRANCH   1  16
TORSDOF 6
ENDMDL
MODEL 4
REMARK VINA RESULT:    -6.658      1.272      1.540
REMARK INTER + INTRA:          -9.782
REMARK INTER:                  -9.152
REMARK INTRA:                  -0.630
REMARK UNBOUND:                -0.984
REMARK SMILES O=C(O)COc1ccc(Cl)cc1C(=O)c1cccs1
REMARK SMILES IDX 5 1 6 2 9 3 11 4 8 5 12 6 7 7 10 8 13 9 14 10 15 11 16 12
REMARK SMILES IDX 19 13 17 14 18 15 4 16 2 17 1 18 3 19
REMARK H PARENT 3 20
ROOT
ATOM      1  O   UNL     1      16.756   8.151  64.470  1.00  0.00    -0.481 OA
ENDROOT
BRANCH   1   2
ATOM      2  C   UNL     1      17.935   8.558  63.910  1.00  0.00    +0.131 A 
ATOM      3  C   UNL     1      20.371   9.417  62.861  1.00  0.00    +0.042 A 
ATOM      4  C   UNL     1      19.184   9.936  62.346  1.00  0.00    +0.036 A 
ATOM      5  C   UNL     1      20.348   8.489  63.905  1.00  0.00    +0.024 A 
ATOM      6  C   UNL     1      17.967   9.514  62.889  1.00  0.00    +0.067 A 
ATOM      7  C   UNL     1      19.128   8.063  64.435  1.00  0.00    +0.049 A 
ATOM      8 Cl   UNL     1      21.878   9.932  62.211  1.00  0.00    -0.084 Cl
BRANCH   6   9
ATOM      9  C   UNL     1      16.711  10.064  62.348  1.00  0.00    +0.206 C 
ATOM     10  O   UNL     1      16.144   9.376  61.498  1.00  0.00    -0.288 OA
BRANCH   9  11
ATOM     11  C   UNL     1      16.213  11.353  62.806  1.00  0.00    +0.075 A 
ATOM     12  C   UNL     1      15.881  12.431  62.005  1.00  0.00    +0.024 A 
ATOM     13  S   UNL     1      15.951  11.714  64.459  1.00  0.00    -0.140 S 
ATOM     14  C   UNL     1      15.419  13.552  62.753  1.00  0.00    +0.012 A 
ATOM     15  C   UNL     1      15.408  13.295  64.105  1.00  0.00    +0.065 A 
ENDBRANCH   9  11
ENDBRANCH   6   9
ENDBRANCH   1   2
BRANCH   1  16
ATOM     16  C   UNL     1      16.932   7.753  65.834  1.00  0.00    +0.351 C 
BRANCH  16  17
ATOM     17  C   UNL     1      16.697   8.899  66.802  1.00  0.00    +0.341 C 
ATOM     18  O   UNL     1      15.631   9.395  67.130  1.00  0.00    -0.248 OA
BRANCH  17  19
ATOM     19  O   UNL     1      17.851   9.384  67.309  1.00  0.00    -0.479 OA
ATOM     20  H   UNL     1      18.029   8.812  68.086  1.00  0.00    +0.296 HD
ENDBRANCH  17  19
ENDBRANCH  16  17
ENDBRANCH   1  16
TORSDOF 6
ENDMDL
MODEL 5
REMARK VINA RESULT:    -6.431      2.120      2.715
REMARK INTER + INTRA:          -9.482
REMARK INTER:                  -8.806
REMARK INTRA:                  -0.676
REMARK UNBOUND:                -0.984
REMARK SMILES O=C(O)COc1ccc(Cl)cc1C(=O)c1cccs1
REMARK SMILES IDX 5 1 6 2 9 3 11 4 8 5 12 6 7 7 10 8 13 9 14 10 15 11 16 12
REMARK SMILES IDX 19 13 17 14 18 15 4 16 2 17 1 18 3 19
REMARK H PARENT 3 20
ROOT
ATOM      1  O   UNL     1      17.018  10.216  65.925  1.00  0.00    -0.481 OA
ENDROOT
BRANCH   1   2
ATOM      2  C   UNL     1      18.136  10.052  65.155  1.00  0.00    +0.131 A 
ATOM      3  C   UNL     1      20.464   9.680  63.668  1.00  0.00    +0.042 A 
ATOM      4  C   UNL     1      19.886  10.946  63.726  1.00  0.00    +0.036 A 
ATOM      5  C   UNL     1      19.900   8.607  64.361  1.00  0.00    +0.024 A 
ATOM      6  C   UNL     1      18.728  11.130  64.489  1.00  0.00    +0.067 A 
ATOM      7  C   UNL     1      18.737   8.794  65.112  1.00  0.00    +0.049 A 
ATOM      8 Cl   UNL     1      21.894   9.439  62.743  1.00  0.00    -0.084 Cl
BRANCH   6   9
ATOM      9  C   UNL     1      18.116  12.469  64.553  1.00  0.00    +0.206 C 
ATOM     10  O   UNL     1      18.522  13.204  65.454  1.00  0.00    -0.288 OA
BRANCH   9  11
ATOM     11  C   UNL     1      17.085  12.855  63.601  1.00  0.00    +0.075 A 
ATOM     12  C   UNL     1      15.827  13.342  63.911  1.00  0.00    +0.024 A 
ATOM     13  S   UNL     1      17.306  12.765  61.905  1.00  0.00    -0.140 S 
ATOM     14  C   UNL     1      15.049  13.634  62.754  1.00  0.00    +0.012 A 
ATOM     15  C   UNL     1      15.736  13.363  61.593  1.00  0.00    +0.065 A 
ENDBRANCH   9  11
ENDBRANCH   6   9
ENDBRANCH   1   2
BRANCH   1  16
ATOM     16  C   UNL     1      16.149   9.081  65.838  1.00  0.00    +0.351 C 
BRANCH  16  17
ATOM     17  C   UNL     1      14.873   9.393  65.076  1.00  0.00    +0.341 C 
ATOM     18  O   UNL     1      13.721   9.263  65.460  1.00  0.00    -0.248 OA
BRANCH  17  19
ATOM     19  O   UNL     1      15.120   9.852  63.830  1.00  0.00    -0.479 OA
ATOM     20  H   UNL     1      16.046   9.581  63.655  1.00  0.00    +0.296 HD
ENDBRANCH  17  19
ENDBRANCH  16  17
ENDBRANCH   1  16
TORSDOF 6
ENDMDL
MODEL 6
REMARK VINA RESULT:    -6.404      2.879      4.299
REMARK INTER + INTRA:          -9.447
REMARK INTER:                  -8.655
REMARK INTRA:                  -0.792
REMARK UNBOUND:                -0.984
REMARK SMILES O=C(O)COc1ccc(Cl)cc1C(=O)c1cccs1
REMARK SMILES IDX 5 1 6 2 9 3 11 4 8 5 12 6 7 7 10 8 13 9 14 10 15 11 16 12
REMARK SMILES IDX 19 13 17 14 18 15 4 16 2 17 1 18 3 19
REMARK H PARENT 3 20
ROOT
ATOM      1  O   UNL     1      18.471  11.890  65.229  1.00  0.00    -0.481 OA
ENDROOT
BRANCH   1   2
ATOM      2  C   UNL     1      18.408  10.524  65.257  1.00  0.00    +0.131 A 
ATOM      3  C   UNL     1      18.304   7.743  65.414  1.00  0.00    +0.042 A 
ATOM      4  C   UNL     1      19.152   8.343  64.486  1.00  0.00    +0.036 A 
ATOM      5  C   UNL     1      17.524   8.521  66.273  1.00  0.00    +0.024 A 
ATOM      6  C   UNL     1      19.214   9.739  64.425  1.00  0.00    +0.067 A 
ATOM      7  C   UNL     1      17.581   9.914  66.199  1.00  0.00    +0.049 A 
ATOM      8 Cl   UNL     1      18.224   6.028  65.508  1.00  0.00    -0.084 Cl
BRANCH   6   9
ATOM      9  C   UNL     1      20.113  10.376  63.447  1.00  0.00    +0.206 C 
ATOM     10  O   UNL     1      21.283  10.518  63.804  1.00  0.00    -0.288 OA
BRANCH   9  11
ATOM     11  C   UNL     1      19.606  10.812  62.154  1.00  0.00    +0.075 A 
ATOM     12  C   UNL     1      18.404  10.439  61.580  1.00  0.00    +0.024 A 
ATOM     13  S   UNL     1      20.459  11.897  61.140  1.00  0.00    -0.140 S 
ATOM     14  C   UNL     1      18.191  11.041  60.306  1.00  0.00    +0.012 A 
ATOM     15  C   UNL     1      19.236  11.859  59.946  1.00  0.00    +0.065 A 
ENDBRANCH   9  11
ENDBRANCH   6   9
ENDBRANCH   1   2
BRANCH   1  16
ATOM     16  C   UNL     1      17.205  12.481  65.543  1.00  0.00    +0.351 C 
BRANCH  16  17
ATOM     17  C   UNL     1      16.531  13.078  64.321  1.00  0.00    +0.341 C 
ATOM     18  O   UNL     1      17.011  13.258  63.213  1.00  0.00    -0.248 OA
BRANCH  17  19
ATOM     19  O   UNL     1      15.253  13.441  64.568  1.00  0.00    -0.479 OA
ATOM     20  H   UNL     1      14.759  12.594  64.559  1.00  0.00    +0.296 HD
ENDBRANCH  17  19
ENDBRANCH  16  17
ENDBRANCH   1  16
TORSDOF 6
ENDMDL
MODEL 7
REMARK VINA RESULT:    -6.328      4.211      6.243
REMARK INTER + INTRA:          -9.346
REMARK INTER:                  -8.540
REMARK INTRA:                  -0.807
REMARK UNBOUND:                -0.984
REMARK SMILES O=C(O)COc1ccc(Cl)cc1C(=O)c1cccs1
REMARK SMILES IDX 5 1 6 2 9 3 11 4 8 5 12 6 7 7 10 8 13 9 14 10 15 11 16 12
REMARK SMILES IDX 19 13 17 14 18 15 4 16 2 17 1 18 3 19
REMARK H PARENT 3 20
ROOT
ATOM      1  O   UNL     1      16.874  10.994  61.599  1.00  0.00    -0.481 OA
ENDROOT
BRANCH   1   2
ATOM      2  C   UNL     1      16.037  12.066  61.741  1.00  0.00    +0.131 A 
ATOM      3  C   UNL     1      14.381  14.297  61.955  1.00  0.00    +0.042 A 
ATOM      4  C   UNL     1      15.094  13.867  63.072  1.00  0.00    +0.036 A 
ATOM      5  C   UNL     1      14.504  13.634  60.732  1.00  0.00    +0.024 A 
ATOM      6  C   UNL     1      15.937  12.758  62.953  1.00  0.00    +0.067 A 
ATOM      7  C   UNL     1      15.339  12.520  60.623  1.00  0.00    +0.049 A 
ATOM      8 Cl   UNL     1      13.346  15.666  62.082  1.00  0.00    -0.084 Cl
BRANCH   6   9
ATOM      9  C   UNL     1      16.695  12.302  64.132  1.00  0.00    +0.206 C 
ATOM     10  O   UNL     1      17.715  12.939  64.396  1.00  0.00    -0.288 OA
BRANCH   9  11
ATOM     11  C   UNL     1      16.240  11.154  64.902  1.00  0.00    +0.075 A 
ATOM     12  C   UNL     1      15.068  10.446  64.699  1.00  0.00    +0.024 A 
ATOM     13  S   UNL     1      17.136  10.494  66.204  1.00  0.00    -0.140 S 
ATOM     14  C   UNL     1      14.908   9.370  65.618  1.00  0.00    +0.012 A 
ATOM     15  C   UNL     1      15.965   9.284  66.495  1.00  0.00    +0.065 A 
ENDBRANCH   9  11
ENDBRANCH   6   9
ENDBRANCH   1   2
BRANCH   1  16
ATOM     16  C   UNL     1      17.916  11.263  60.654  1.00  0.00    +0.351 C 
BRANCH  16  17
ATOM     17  C   UNL     1      19.088  11.994  61.284  1.00  0.00    +0.341 C 
ATOM     18  O   UNL     1      19.886  11.565  62.102  1.00  0.00    -0.248 OA
BRANCH  17  19
ATOM     19  O   UNL     1      19.189  13.270  60.849  1.00  0.00    -0.479 OA
ATOM     20  H   UNL     1      18.664  13.281  60.020  1.00  0.00    +0.296 HD
ENDBRANCH  17  19
ENDBRANCH  16  17
ENDBRANCH   1  16
TORSDOF 6
ENDMDL
MODEL 8
REMARK VINA RESULT:    -6.169      3.609      5.261
REMARK INTER + INTRA:          -9.137
REMARK INTER:                  -8.509
REMARK INTRA:                  -0.627
REMARK UNBOUND:                -0.984
REMARK SMILES O=C(O)COc1ccc(Cl)cc1C(=O)c1cccs1
REMARK SMILES IDX 5 1 6 2 9 3 11 4 8 5 12 6 7 7 10 8 13 9 14 10 15 11 16 12
REMARK SMILES IDX 19 13 17 14 18 15 4 16 2 17 1 18 3 19
REMARK H PARENT 3 20
ROOT
ATOM      1  O   UNL     1      17.331  10.561  64.189  1.00  0.00    -0.481 OA
ENDROOT
BRANCH   1   2
ATOM      2  C   UNL     1      16.590  11.606  63.707  1.00  0.00    +0.131 A 
ATOM      3  C   UNL     1      15.001  13.698  62.778  1.00  0.00    +0.042 A 
ATOM      4  C   UNL     1      15.656  12.879  61.861  1.00  0.00    +0.036 A 
ATOM      5  C   UNL     1      15.120  13.468  64.150  1.00  0.00    +0.024 A 
ATOM      6  C   UNL     1      16.437  11.819  62.334  1.00  0.00    +0.067 A 
ATOM      7  C   UNL     1      15.911  12.415  64.617  1.00  0.00    +0.049 A 
ATOM      8 Cl   UNL     1      14.028  14.999  62.213  1.00  0.00    -0.084 Cl
BRANCH   6   9
ATOM      9  C   UNL     1      17.129  10.950  61.366  1.00  0.00    +0.206 C 
ATOM     10  O   UNL     1      16.582   9.873  61.123  1.00  0.00    -0.288 OA
BRANCH   9  11
ATOM     11  C   UNL     1      18.388  11.368  60.768  1.00  0.00    +0.075 A 
ATOM     12  C   UNL     1      18.609  11.630  59.427  1.00  0.00    +0.024 A 
ATOM     13  S   UNL     1      19.815  11.612  61.683  1.00  0.00    -0.140 S 
ATOM     14  C   UNL     1      19.951  12.024  59.156  1.00  0.00    +0.012 A 
ATOM     15  C   UNL     1      20.716  12.054  60.299  1.00  0.00    +0.065 A 
ENDBRANCH   9  11
ENDBRANCH   6   9
ENDBRANCH   1   2
BRANCH   1  16
ATOM     16  C   UNL     1      17.453  10.617  65.614  1.00  0.00    +0.351 C 
BRANCH  16  17
ATOM     17  C   UNL     1      16.999   9.331  66.281  1.00  0.00    +0.341 C 
ATOM     18  O   UNL     1      16.083   8.597  65.946  1.00  0.00    -0.248 OA
BRANCH  17  19
ATOM     19  O   UNL     1      17.735   9.034  67.375  1.00  0.00    -0.479 OA
ATOM     20  H   UNL     1      17.408   9.658  68.058  1.00  0.00    +0.296 HD
ENDBRANCH  17  19
ENDBRANCH  16  17
ENDBRANCH   1  16
TORSDOF 6
ENDMDL
MODEL 9
REMARK VINA RESULT:    -6.110      3.583      5.766
REMARK INTER + INTRA:          -9.058
REMARK INTER:                  -8.431
REMARK INTRA:                  -0.627
REMARK UNBOUND:                -0.984
REMARK SMILES O=C(O)COc1ccc(Cl)cc1C(=O)c1cccs1
REMARK SMILES IDX 5 1 6 2 9 3 11 4 8 5 12 6 7 7 10 8 13 9 14 10 15 11 16 12
REMARK SMILES IDX 19 13 17 14 18 15 4 16 2 17 1 18 3 19
REMARK H PARENT 3 20
ROOT
ATOM      1  O   UNL     1      17.976  11.106  62.683  1.00  0.00    -0.481 OA
ENDROOT
BRANCH   1   2
ATOM      2  C   UNL     1      16.970  12.032  62.649  1.00  0.00    +0.131 A 
ATOM      3  C   UNL     1      14.982  13.981  62.528  1.00  0.00    +0.042 A 
ATOM      4  C   UNL     1      15.380  13.489  63.769  1.00  0.00    +0.036 A 
ATOM      5  C   UNL     1      15.580  13.522  61.353  1.00  0.00    +0.024 A 
ATOM      6  C   UNL     1      16.391  12.524  63.823  1.00  0.00    +0.067 A 
ATOM      7  C   UNL     1      16.581  12.549  61.413  1.00  0.00    +0.049 A 
ATOM      8 Cl   UNL     1      13.746  15.176  62.443  1.00  0.00    -0.084 Cl
BRANCH   6   9
ATOM      9  C   UNL     1      16.817  12.003  65.135  1.00  0.00    +0.206 C 
ATOM     10  O   UNL     1      17.385  12.807  65.874  1.00  0.00    -0.288 OA
BRANCH   9  11
ATOM     11  C   UNL     1      16.575  10.613  65.489  1.00  0.00    +0.075 A 
ATOM     12  C   UNL     1      17.406   9.807  66.247  1.00  0.00    +0.024 A 
ATOM     13  S   UNL     1      15.170   9.761  65.007  1.00  0.00    -0.140 S 
ATOM     14  C   UNL     1      16.888   8.492  66.423  1.00  0.00    +0.012 A 
ATOM     15  C   UNL     1      15.674   8.332  65.796  1.00  0.00    +0.065 A 
ENDBRANCH   9  11
ENDBRANCH   6   9
ENDBRANCH   1   2
BRANCH   1  16
ATOM     16  C   UNL     1      19.185  11.624  62.117  1.00  0.00    +0.351 C 
BRANCH  16  17
ATOM     17  C   UNL     1      20.409  11.244  62.933  1.00  0.00    +0.341 C 
ATOM     18  O   UNL     1      21.556  11.103  62.541  1.00  0.00    -0.248 OA
BRANCH  17  19
ATOM     19  O   UNL     1      20.112  11.042  64.236  1.00  0.00    -0.479 OA
ATOM     20  H   UNL     1      19.239  10.596  64.215  1.00  0.00    +0.296 HD
ENDBRANCH  17  19
ENDBRANCH  16  17
ENDBRANCH   1  16
TORSDOF 6
ENDMDL
