MODEL 1
REMARK VINA RESULT:    -9.999      0.000      0.000
REMARK INTER + INTRA:         -16.353
REMARK INTER:                 -14.676
REMARK INTRA:                  -1.678
REMARK UNBOUND:                -1.678
REMARK SMILES O=C(c1ccc(OCCN2CCCCC2)cc1)c1c(-c2ccc(O)cc2)sc2cc(O)ccc12
REMARK SMILES IDX 3 1 4 2 5 3 6 4 16 5 17 6 2 7 1 8 18 9 19 10 34 11 27 12
REMARK SMILES IDX 28 13 33 14 29 15 32 16 30 17 20 18 21 19 26 20 22 21 25 22
REMARK SMILES IDX 23 23 24 24 31 26 7 28 8 29 9 30 10 31 11 32 15 33 12 34
REMARK SMILES IDX 14 35 13 36
REMARK H PARENT 24 25 31 27
ROOT
ATOM      1  C   UNL     1     -20.717 -17.801 -13.808  1.00  0.00    +0.023 A 
ATOM      2  C   UNL     1     -19.859 -18.855 -13.471  1.00  0.00    +0.016 A 
ATOM      3  C   UNL     1     -20.192 -20.173 -13.799  1.00  0.00    +0.047 A 
ATOM      4  C   UNL     1     -21.387 -20.443 -14.464  1.00  0.00    +0.119 A 
ATOM      5  C   UNL     1     -22.262 -19.397 -14.764  1.00  0.00    +0.047 A 
ATOM      6  C   UNL     1     -21.934 -18.078 -14.441  1.00  0.00    +0.016 A 
ENDROOT
BRANCH   1   7
ATOM      7  C   UNL     1     -20.319 -16.412 -13.438  1.00  0.00    +0.195 C 
ATOM      8  O   UNL     1     -19.353 -15.898 -13.995  1.00  0.00    -0.289 OA
BRANCH   7   9
ATOM      9  C   UNL     1     -21.077 -15.702 -12.408  1.00  0.00    +0.049 A 
ATOM     10  C   UNL     1     -22.141 -14.851 -12.675  1.00  0.00    +0.047 A 
ATOM     11  C   UNL     1     -20.777 -15.768 -10.993  1.00  0.00    +0.005 A 
ATOM     12  S   UNL     1     -22.824 -14.221 -11.242  1.00  0.00    -0.134 S 
ATOM     13  C   UNL     1     -21.676 -15.010 -10.239  1.00  0.00    +0.039 A 
ATOM     14  C   UNL     1     -19.761 -16.474 -10.294  1.00  0.00    +0.014 A 
ATOM     15  C   UNL     1     -21.595 -14.943  -8.835  1.00  0.00    +0.065 A 
ATOM     16  C   UNL     1     -19.670 -16.410  -8.901  1.00  0.00    +0.047 A 
ATOM     17  C   UNL     1     -20.583 -15.650  -8.191  1.00  0.00    +0.117 A 
BRANCH  10  18
ATOM     18  C   UNL     1     -22.689 -14.422 -13.966  1.00  0.00    -0.007 A 
ATOM     19  C   UNL     1     -23.803 -15.082 -14.507  1.00  0.00    +0.013 A 
ATOM     20  C   UNL     1     -22.134 -13.341 -14.665  1.00  0.00    +0.013 A 
ATOM     21  C   UNL     1     -24.353 -14.671 -15.725  1.00  0.00    +0.047 A 
ATOM     22  C   UNL     1     -22.683 -12.929 -15.881  1.00  0.00    +0.047 A 
ATOM     23  C   UNL     1     -23.785 -13.596 -16.401  1.00  0.00    +0.115 A 
BRANCH  23  24
ATOM     24  O   UNL     1     -24.289 -13.161 -17.591  1.00  0.00    -0.508 OA
ATOM     25  H   UNL     1     -24.979 -13.781 -17.879  1.00  0.00    +0.293 HD
ENDBRANCH  23  24
ENDBRANCH  10  18
BRANCH  17  26
ATOM     26  O   UNL     1     -20.527 -15.564  -6.830  1.00  0.00    -0.508 OA
ATOM     27  H   UNL     1     -21.088 -14.826  -6.540  1.00  0.00    +0.293 HD
ENDBRANCH  17  26
ENDBRANCH   7   9
ENDBRANCH   1   7
BRANCH   4  28
ATOM     28  O   UNL     1     -21.826 -21.686 -14.823  1.00  0.00    -0.492 OA
BRANCH  28  29
ATOM     29  C   UNL     1     -23.155 -22.052 -14.439  1.00  0.00    +0.245 C 
BRANCH  29  30
ATOM     30  C   UNL     1     -24.149 -22.079 -15.622  1.00  0.00    +0.126 C 
BRANCH  30  31
ATOM     31  N   UNL     1     -24.122 -23.305 -16.443  1.00  0.00    -0.300 NA
ATOM     32  C   UNL     1     -24.305 -24.513 -15.622  1.00  0.00    +0.084 C 
ATOM     33  C   UNL     1     -25.060 -23.301 -17.573  1.00  0.00    +0.084 C 
ATOM     34  C   UNL     1     -25.742 -24.720 -15.135  1.00  0.00    +0.016 C 
ATOM     35  C   UNL     1     -26.525 -23.453 -17.161  1.00  0.00    +0.016 C 
ATOM     36  C   UNL     1     -26.730 -24.692 -16.296  1.00  0.00    +0.003 C 
ENDBRANCH  30  31
ENDBRANCH  29  30
ENDBRANCH  28  29
ENDBRANCH   4  28
TORSDOF 9
ENDMDL
MODEL 2
REMARK VINA RESULT:    -9.441      1.341      5.126
REMARK INTER + INTRA:         -15.534
REMARK INTER:                 -14.167
REMARK INTRA:                  -1.366
REMARK UNBOUND:                -1.678
REMARK SMILES O=C(c1ccc(OCCN2CCCCC2)cc1)c1c(-c2ccc(O)cc2)sc2cc(O)ccc12
REMARK SMILES IDX 3 1 4 2 5 3 6 4 16 5 17 6 2 7 1 8 18 9 19 10 34 11 27 12
REMARK SMILES IDX 28 13 33 14 29 15 32 16 30 17 20 18 21 19 26 20 22 21 25 22
REMARK SMILES IDX 23 23 24 24 31 26 7 28 8 29 9 30 10 31 11 32 15 33 12 34
REMARK SMILES IDX 14 35 13 36
REMARK H PARENT 24 25 31 27
ROOT
ATOM      1  C   UNL     1     -20.198 -17.499 -13.029  1.00  0.00    +0.023 A 
ATOM      2  C   UNL     1     -21.388 -17.789 -13.709  1.00  0.00    +0.016 A 
ATOM      3  C   UNL     1     -21.608 -19.063 -14.241  1.00  0.00    +0.047 A 
ATOM      4  C   UNL     1     -20.638 -20.054 -14.097  1.00  0.00    +0.119 A 
ATOM      5  C   UNL     1     -19.435 -19.754 -13.455  1.00  0.00    +0.047 A 
ATOM      6  C   UNL     1     -19.210 -18.483 -12.920  1.00  0.00    +0.016 A 
ENDROOT
BRANCH   1   7
ATOM      7  C   UNL     1     -20.009 -16.126 -12.478  1.00  0.00    +0.195 C 
ATOM      8  O   UNL     1     -18.913 -15.808 -12.027  1.00  0.00    -0.289 OA
BRANCH   7   9
ATOM      9  C   UNL     1     -21.140 -15.198 -12.471  1.00  0.00    +0.049 A 
ATOM     10  C   UNL     1     -21.940 -14.959 -11.362  1.00  0.00    +0.047 A 
ATOM     11  C   UNL     1     -21.585 -14.455 -13.632  1.00  0.00    +0.005 A 
ATOM     12  S   UNL     1     -23.144 -13.792 -11.688  1.00  0.00    -0.134 S 
ATOM     13  C   UNL     1     -22.670 -13.630 -13.330  1.00  0.00    +0.039 A 
ATOM     14  C   UNL     1     -21.088 -14.432 -14.962  1.00  0.00    +0.014 A 
ATOM     15  C   UNL     1     -23.258 -12.795 -14.299  1.00  0.00    +0.065 A 
ATOM     16  C   UNL     1     -21.667 -13.609 -15.932  1.00  0.00    +0.047 A 
ATOM     17  C   UNL     1     -22.740 -12.803 -15.591  1.00  0.00    +0.117 A 
BRANCH  10  18
ATOM     18  C   UNL     1     -21.905 -15.584 -10.035  1.00  0.00    -0.007 A 
ATOM     19  C   UNL     1     -20.872 -15.266  -9.140  1.00  0.00    +0.013 A 
ATOM     20  C   UNL     1     -22.903 -16.482  -9.630  1.00  0.00    +0.013 A 
ATOM     21  C   UNL     1     -20.836 -15.833  -7.863  1.00  0.00    +0.047 A 
ATOM     22  C   UNL     1     -22.868 -17.048  -8.355  1.00  0.00    +0.047 A 
ATOM     23  C   UNL     1     -21.836 -16.721  -7.483  1.00  0.00    +0.115 A 
BRANCH  23  24
ATOM     24  O   UNL     1     -21.841 -17.298  -6.247  1.00  0.00    -0.508 OA
ATOM     25  H   UNL     1     -22.505 -16.849  -5.699  1.00  0.00    +0.293 HD
ENDBRANCH  23  24
ENDBRANCH  10  18
BRANCH  17  26
ATOM     26  O   UNL     1     -23.331 -11.986 -16.510  1.00  0.00    -0.508 OA
ATOM     27  H   UNL     1     -23.906 -11.356 -16.044  1.00  0.00    +0.293 HD
ENDBRANCH  17  26
ENDBRANCH   7   9
ENDBRANCH   1   7
BRANCH   4  28
ATOM     28  O   UNL     1     -20.732 -21.327 -14.585  1.00  0.00    -0.492 OA
BRANCH  28  29
ATOM     29  C   UNL     1     -21.947 -22.039 -14.334  1.00  0.00    +0.245 C 
BRANCH  29  30
ATOM     30  C   UNL     1     -22.944 -21.987 -15.513  1.00  0.00    +0.126 C 
BRANCH  30  31
ATOM     31  N   UNL     1     -24.311 -22.454 -15.207  1.00  0.00    -0.300 NA
ATOM     32  C   UNL     1     -25.267 -22.061 -16.256  1.00  0.00    +0.084 C 
ATOM     33  C   UNL     1     -24.414 -23.890 -14.925  1.00  0.00    +0.084 C 
ATOM     34  C   UNL     1     -25.141 -22.876 -17.546  1.00  0.00    +0.016 C 
ATOM     35  C   UNL     1     -24.249 -24.777 -16.161  1.00  0.00    +0.016 C 
ATOM     36  C   UNL     1     -25.222 -24.374 -17.264  1.00  0.00    +0.003 C 
ENDBRANCH  30  31
ENDBRANCH  29  30
ENDBRANCH  28  29
ENDBRANCH   4  28
TORSDOF 9
ENDMDL
MODEL 3
REMARK VINA RESULT:    -9.359      2.540      4.867
REMARK INTER + INTRA:         -15.413
REMARK INTER:                 -14.797
REMARK INTRA:                  -0.616
REMARK UNBOUND:                -1.678
REMARK SMILES O=C(c1ccc(OCCN2CCCCC2)cc1)c1c(-c2ccc(O)cc2)sc2cc(O)ccc12
REMARK SMILES IDX 3 1 4 2 5 3 6 4 16 5 17 6 2 7 1 8 18 9 19 10 34 11 27 12
REMARK SMILES IDX 28 13 33 14 29 15 32 16 30 17 20 18 21 19 26 20 22 21 25 22
REMARK SMILES IDX 23 23 24 24 31 26 7 28 8 29 9 30 10 31 11 32 15 33 12 34
REMARK SMILES IDX 14 35 13 36
REMARK H PARENT 24 25 31 27
ROOT
ATOM      1  C   UNL     1     -21.435 -17.335 -13.226  1.00  0.00    +0.023 A 
ATOM      2  C   UNL     1     -21.245 -18.403 -14.113  1.00  0.00    +0.016 A 
ATOM      3  C   UNL     1     -22.342 -19.035 -14.706  1.00  0.00    +0.047 A 
ATOM      4  C   UNL     1     -23.635 -18.604 -14.414  1.00  0.00    +0.119 A 
ATOM      5  C   UNL     1     -23.826 -17.566 -13.499  1.00  0.00    +0.047 A 
ATOM      6  C   UNL     1     -22.735 -16.929 -12.905  1.00  0.00    +0.016 A 
ENDROOT
BRANCH   1   7
ATOM      7  C   UNL     1     -20.235 -16.691 -12.619  1.00  0.00    +0.195 C 
ATOM      8  O   UNL     1     -19.296 -16.372 -13.343  1.00  0.00    -0.289 OA
BRANCH   7   9
ATOM      9  C   UNL     1     -20.197 -16.472 -11.173  1.00  0.00    +0.049 A 
ATOM     10  C   UNL     1     -19.805 -17.435 -10.253  1.00  0.00    +0.047 A 
ATOM     11  C   UNL     1     -20.608 -15.242 -10.530  1.00  0.00    +0.005 A 
ATOM     12  S   UNL     1     -19.840 -16.835  -8.654  1.00  0.00    -0.134 S 
ATOM     13  C   UNL     1     -20.444 -15.305  -9.144  1.00  0.00    +0.039 A 
ATOM     14  C   UNL     1     -21.111 -14.032 -11.080  1.00  0.00    +0.014 A 
ATOM     15  C   UNL     1     -20.757 -14.215  -8.310  1.00  0.00    +0.065 A 
ATOM     16  C   UNL     1     -21.428 -12.946 -10.260  1.00  0.00    +0.047 A 
ATOM     17  C   UNL     1     -21.248 -13.049  -8.891  1.00  0.00    +0.117 A 
BRANCH  10  18
ATOM     18  C   UNL     1     -19.426 -18.835 -10.473  1.00  0.00    -0.007 A 
ATOM     19  C   UNL     1     -19.111 -19.654  -9.379  1.00  0.00    +0.013 A 
ATOM     20  C   UNL     1     -19.396 -19.383 -11.764  1.00  0.00    +0.013 A 
ATOM     21  C   UNL     1     -18.772 -20.997  -9.568  1.00  0.00    +0.047 A 
ATOM     22  C   UNL     1     -19.058 -20.724 -11.954  1.00  0.00    +0.047 A 
ATOM     23  C   UNL     1     -18.748 -21.519 -10.858  1.00  0.00    +0.115 A 
BRANCH  23  24
ATOM     24  O   UNL     1     -18.423 -22.823 -11.089  1.00  0.00    -0.508 OA
ATOM     25  H   UNL     1     -19.196 -23.271 -11.469  1.00  0.00    +0.293 HD
ENDBRANCH  23  24
ENDBRANCH  10  18
BRANCH  17  26
ATOM     26  O   UNL     1     -21.544 -12.010  -8.059  1.00  0.00    -0.508 OA
ATOM     27  H   UNL     1     -22.400 -12.184  -7.634  1.00  0.00    +0.293 HD
ENDBRANCH  17  26
ENDBRANCH   7   9
ENDBRANCH   1   7
BRANCH   4  28
ATOM     28  O   UNL     1     -24.781 -19.151 -14.918  1.00  0.00    -0.492 OA
BRANCH  28  29
ATOM     29  C   UNL     1     -24.643 -20.154 -15.928  1.00  0.00    +0.245 C 
BRANCH  29  30
ATOM     30  C   UNL     1     -24.613 -21.593 -15.365  1.00  0.00    +0.126 C 
BRANCH  30  31
ATOM     31  N   UNL     1     -24.151 -22.631 -16.307  1.00  0.00    -0.300 NA
ATOM     32  C   UNL     1     -23.897 -23.910 -15.624  1.00  0.00    +0.084 C 
ATOM     33  C   UNL     1     -25.025 -22.830 -17.470  1.00  0.00    +0.084 C 
ATOM     34  C   UNL     1     -25.170 -24.661 -15.223  1.00  0.00    +0.016 C 
ATOM     35  C   UNL     1     -26.343 -23.532 -17.140  1.00  0.00    +0.016 C 
ATOM     36  C   UNL     1     -26.100 -24.853 -16.417  1.00  0.00    +0.003 C 
ENDBRANCH  30  31
ENDBRANCH  29  30
ENDBRANCH  28  29
ENDBRANCH   4  28
TORSDOF 9
ENDMDL
MODEL 4
REMARK VINA RESULT:    -9.138      2.479      3.637
REMARK INTER + INTRA:         -15.089
REMARK INTER:                 -13.137
REMARK INTRA:                  -1.953
REMARK UNBOUND:                -1.678
REMARK SMILES O=C(c1ccc(OCCN2CCCCC2)cc1)c1c(-c2ccc(O)cc2)sc2cc(O)ccc12
REMARK SMILES IDX 3 1 4 2 5 3 6 4 16 5 17 6 2 7 1 8 18 9 19 10 34 11 27 12
REMARK SMILES IDX 28 13 33 14 29 15 32 16 30 17 20 18 21 19 26 20 22 21 25 22
REMARK SMILES IDX 23 23 24 24 31 26 7 28 8 29 9 30 10 31 11 32 15 33 12 34
REMARK SMILES IDX 14 35 13 36
REMARK H PARENT 24 25 31 27
ROOT
ATOM      1  C   UNL     1     -23.230 -16.879 -12.865  1.00  0.00    +0.023 A 
ATOM      2  C   UNL     1     -22.506 -17.066 -14.049  1.00  0.00    +0.016 A 
ATOM      3  C   UNL     1     -22.877 -18.064 -14.956  1.00  0.00    +0.047 A 
ATOM      4  C   UNL     1     -23.974 -18.881 -14.682  1.00  0.00    +0.119 A 
ATOM      5  C   UNL     1     -24.671 -18.720 -13.483  1.00  0.00    +0.047 A 
ATOM      6  C   UNL     1     -24.306 -17.724 -12.574  1.00  0.00    +0.016 A 
ENDROOT
BRANCH   1   7
ATOM      7  C   UNL     1     -22.797 -15.801 -11.929  1.00  0.00    +0.195 C 
ATOM      8  O   UNL     1     -23.143 -14.644 -12.147  1.00  0.00    -0.289 OA
BRANCH   7   9
ATOM      9  C   UNL     1     -21.955 -16.147 -10.784  1.00  0.00    +0.049 A 
ATOM     10  C   UNL     1     -20.572 -16.247 -10.840  1.00  0.00    +0.047 A 
ATOM     11  C   UNL     1     -22.469 -16.469  -9.469  1.00  0.00    +0.005 A 
ATOM     12  S   UNL     1     -19.900 -16.629  -9.317  1.00  0.00    -0.134 S 
ATOM     13  C   UNL     1     -21.439 -16.737  -8.565  1.00  0.00    +0.039 A 
ATOM     14  C   UNL     1     -23.804 -16.531  -8.986  1.00  0.00    +0.014 A 
ATOM     15  C   UNL     1     -21.700 -17.053  -7.217  1.00  0.00    +0.065 A 
ATOM     16  C   UNL     1     -24.072 -16.848  -7.652  1.00  0.00    +0.047 A 
ATOM     17  C   UNL     1     -23.022 -17.103  -6.786  1.00  0.00    +0.117 A 
BRANCH  10  18
ATOM     18  C   UNL     1     -19.674 -16.113 -11.993  1.00  0.00    -0.007 A 
ATOM     19  C   UNL     1     -19.127 -17.259 -12.590  1.00  0.00    +0.013 A 
ATOM     20  C   UNL     1     -19.369 -14.855 -12.531  1.00  0.00    +0.013 A 
ATOM     21  C   UNL     1     -18.289 -17.152 -13.704  1.00  0.00    +0.047 A 
ATOM     22  C   UNL     1     -18.533 -14.747 -13.644  1.00  0.00    +0.047 A 
ATOM     23  C   UNL     1     -18.000 -15.893 -14.220  1.00  0.00    +0.115 A 
BRANCH  23  24
ATOM     24  O   UNL     1     -17.188 -15.742 -15.306  1.00  0.00    -0.508 OA
ATOM     25  H   UNL     1     -17.087 -14.793 -15.485  1.00  0.00    +0.293 HD
ENDBRANCH  23  24
ENDBRANCH  10  18
BRANCH  17  26
ATOM     26  O   UNL     1     -23.244 -17.414  -5.477  1.00  0.00    -0.508 OA
ATOM     27  H   UNL     1     -22.436 -17.805  -5.107  1.00  0.00    +0.293 HD
ENDBRANCH  17  26
ENDBRANCH   7   9
ENDBRANCH   1   7
BRANCH   4  28
ATOM     28  O   UNL     1     -24.421 -19.894 -15.481  1.00  0.00    -0.492 OA
BRANCH  28  29
ATOM     29  C   UNL     1     -23.591 -21.053 -15.602  1.00  0.00    +0.245 C 
BRANCH  29  30
ATOM     30  C   UNL     1     -24.258 -22.343 -15.075  1.00  0.00    +0.126 C 
BRANCH  30  31
ATOM     31  N   UNL     1     -24.180 -23.509 -15.977  1.00  0.00    -0.300 NA
ATOM     32  C   UNL     1     -24.773 -24.710 -15.366  1.00  0.00    +0.084 C 
ATOM     33  C   UNL     1     -24.739 -23.281 -17.315  1.00  0.00    +0.084 C 
ATOM     34  C   UNL     1     -26.303 -24.690 -15.317  1.00  0.00    +0.016 C 
ATOM     35  C   UNL     1     -26.267 -23.198 -17.342  1.00  0.00    +0.016 C 
ATOM     36  C   UNL     1     -26.898 -24.428 -16.697  1.00  0.00    +0.003 C 
ENDBRANCH  30  31
ENDBRANCH  29  30
ENDBRANCH  28  29
ENDBRANCH   4  28
TORSDOF 9
ENDMDL
MODEL 5
REMARK VINA RESULT:    -8.835      3.372      7.257
REMARK INTER + INTRA:         -14.644
REMARK INTER:                 -13.080
REMARK INTRA:                  -1.564
REMARK UNBOUND:                -1.678
REMARK SMILES O=C(c1ccc(OCCN2CCCCC2)cc1)c1c(-c2ccc(O)cc2)sc2cc(O)ccc12
REMARK SMILES IDX 3 1 4 2 5 3 6 4 16 5 17 6 2 7 1 8 18 9 19 10 34 11 27 12
REMARK SMILES IDX 28 13 33 14 29 15 32 16 30 17 20 18 21 19 26 20 22 21 25 22
REMARK SMILES IDX 23 23 24 24 31 26 7 28 8 29 9 30 10 31 11 32 15 33 12 34
REMARK SMILES IDX 14 35 13 36
REMARK H PARENT 24 25 31 27
ROOT
ATOM      1  C   UNL     1     -19.364 -18.769 -12.128  1.00  0.00    +0.023 A 
ATOM      2  C   UNL     1     -19.130 -17.745 -11.202  1.00  0.00    +0.016 A 
ATOM      3  C   UNL     1     -18.884 -18.047  -9.859  1.00  0.00    +0.047 A 
ATOM      4  C   UNL     1     -18.872 -19.375  -9.435  1.00  0.00    +0.119 A 
ATOM      5  C   UNL     1     -19.145 -20.393 -10.350  1.00  0.00    +0.047 A 
ATOM      6  C   UNL     1     -19.390 -20.099 -11.693  1.00  0.00    +0.016 A 
ENDROOT
BRANCH   1   7
ATOM      7  C   UNL     1     -19.621 -18.399 -13.550  1.00  0.00    +0.195 C 
ATOM      8  O   UNL     1     -18.669 -18.169 -14.290  1.00  0.00    -0.289 OA
BRANCH   7   9
ATOM      9  C   UNL     1     -21.002 -18.300 -14.023  1.00  0.00    +0.049 A 
ATOM     10  C   UNL     1     -21.715 -17.111 -14.090  1.00  0.00    +0.047 A 
ATOM     11  C   UNL     1     -21.800 -19.436 -14.434  1.00  0.00    +0.005 A 
ATOM     12  S   UNL     1     -23.284 -17.347 -14.724  1.00  0.00    -0.134 S 
ATOM     13  C   UNL     1     -23.072 -19.045 -14.859  1.00  0.00    +0.039 A 
ATOM     14  C   UNL     1     -21.485 -20.820 -14.481  1.00  0.00    +0.014 A 
ATOM     15  C   UNL     1     -24.017 -19.979 -15.327  1.00  0.00    +0.065 A 
ATOM     16  C   UNL     1     -22.418 -21.755 -14.940  1.00  0.00    +0.047 A 
ATOM     17  C   UNL     1     -23.666 -21.326 -15.356  1.00  0.00    +0.117 A 
BRANCH  10  18
ATOM     18  C   UNL     1     -21.322 -15.763 -13.666  1.00  0.00    -0.007 A 
ATOM     19  C   UNL     1     -21.698 -15.290 -12.400  1.00  0.00    +0.013 A 
ATOM     20  C   UNL     1     -20.549 -14.939 -14.498  1.00  0.00    +0.013 A 
ATOM     21  C   UNL     1     -21.311 -14.017 -11.971  1.00  0.00    +0.047 A 
ATOM     22  C   UNL     1     -20.161 -13.668 -14.069  1.00  0.00    +0.047 A 
ATOM     23  C   UNL     1     -20.545 -13.217 -12.812  1.00  0.00    +0.115 A 
BRANCH  23  24
ATOM     24  O   UNL     1     -20.145 -11.970 -12.434  1.00  0.00    -0.508 OA
ATOM     25  H   UNL     1     -20.781 -11.624 -11.787  1.00  0.00    +0.293 HD
ENDBRANCH  23  24
ENDBRANCH  10  18
BRANCH  17  26
ATOM     26  O   UNL     1     -24.602 -22.208 -15.812  1.00  0.00    -0.508 OA
ATOM     27  H   UNL     1     -24.842 -21.967 -16.722  1.00  0.00    +0.293 HD
ENDBRANCH  17  26
ENDBRANCH   7   9
ENDBRANCH   1   7
BRANCH   4  28
ATOM     28  O   UNL     1     -18.659 -19.790  -8.151  1.00  0.00    -0.492 OA
BRANCH  28  29
ATOM     29  C   UNL     1     -19.792 -19.847  -7.280  1.00  0.00    +0.245 C 
BRANCH  29  30
ATOM     30  C   UNL     1     -21.024 -19.091  -7.826  1.00  0.00    +0.126 C 
BRANCH  30  31
ATOM     31  N   UNL     1     -21.132 -17.677  -7.416  1.00  0.00    -0.300 NA
ATOM     32  C   UNL     1     -21.486 -16.807  -8.549  1.00  0.00    +0.084 C 
ATOM     33  C   UNL     1     -22.032 -17.440  -6.281  1.00  0.00    +0.084 C 
ATOM     34  C   UNL     1     -22.949 -16.924  -8.986  1.00  0.00    +0.016 C 
ATOM     35  C   UNL     1     -23.515 -17.588  -6.627  1.00  0.00    +0.016 C 
ATOM     36  C   UNL     1     -23.897 -16.704  -7.811  1.00  0.00    +0.003 C 
ENDBRANCH  30  31
ENDBRANCH  29  30
ENDBRANCH  28  29
ENDBRANCH   4  28
TORSDOF 9
ENDMDL
MODEL 6
REMARK VINA RESULT:    -8.817      3.274      8.145
REMARK INTER + INTRA:         -14.619
REMARK INTER:                 -12.525
REMARK INTRA:                  -2.094
REMARK UNBOUND:                -1.678
REMARK SMILES O=C(c1ccc(OCCN2CCCCC2)cc1)c1c(-c2ccc(O)cc2)sc2cc(O)ccc12
REMARK SMILES IDX 3 1 4 2 5 3 6 4 16 5 17 6 2 7 1 8 18 9 19 10 34 11 27 12
REMARK SMILES IDX 28 13 33 14 29 15 32 16 30 17 20 18 21 19 26 20 22 21 25 22
REMARK SMILES IDX 23 23 24 24 31 26 7 28 8 29 9 30 10 31 11 32 15 33 12 34
REMARK SMILES IDX 14 35 13 36
REMARK H PARENT 24 25 31 27
ROOT
ATOM      1  C   UNL     1     -23.031 -16.311 -13.061  1.00  0.00    +0.023 A 
ATOM      2  C   UNL     1     -22.814 -14.938 -13.237  1.00  0.00    +0.016 A 
ATOM      3  C   UNL     1     -22.756 -14.082 -12.132  1.00  0.00    +0.047 A 
ATOM      4  C   UNL     1     -22.917 -14.595 -10.846  1.00  0.00    +0.119 A 
ATOM      5  C   UNL     1     -23.173 -15.956 -10.673  1.00  0.00    +0.047 A 
ATOM      6  C   UNL     1     -23.230 -16.817 -11.772  1.00  0.00    +0.016 A 
ENDROOT
BRANCH   1   7
ATOM      7  C   UNL     1     -23.084 -17.184 -14.268  1.00  0.00    +0.195 C 
ATOM      8  O   UNL     1     -23.773 -16.842 -15.225  1.00  0.00    -0.289 OA
BRANCH   7   9
ATOM      9  C   UNL     1     -22.329 -18.437 -14.276  1.00  0.00    +0.049 A 
ATOM     10  C   UNL     1     -20.964 -18.522 -14.037  1.00  0.00    +0.047 A 
ATOM     11  C   UNL     1     -22.908 -19.729 -14.580  1.00  0.00    +0.005 A 
ATOM     12  S   UNL     1     -20.411 -20.138 -14.083  1.00  0.00    -0.134 S 
ATOM     13  C   UNL     1     -21.961 -20.752 -14.491  1.00  0.00    +0.039 A 
ATOM     14  C   UNL     1     -24.239 -20.090 -14.920  1.00  0.00    +0.014 A 
ATOM     15  C   UNL     1     -22.301 -22.099 -14.722  1.00  0.00    +0.065 A 
ATOM     16  C   UNL     1     -24.585 -21.424 -15.155  1.00  0.00    +0.047 A 
ATOM     17  C   UNL     1     -23.617 -22.408 -15.053  1.00  0.00    +0.117 A 
BRANCH  10  18
ATOM     18  C   UNL     1     -19.990 -17.450 -13.804  1.00  0.00    -0.007 A 
ATOM     19  C   UNL     1     -19.223 -17.444 -12.629  1.00  0.00    +0.013 A 
ATOM     20  C   UNL     1     -19.791 -16.435 -14.751  1.00  0.00    +0.013 A 
ATOM     21  C   UNL     1     -18.274 -16.444 -12.402  1.00  0.00    +0.047 A 
ATOM     22  C   UNL     1     -18.842 -15.436 -14.525  1.00  0.00    +0.047 A 
ATOM     23  C   UNL     1     -18.094 -15.447 -13.355  1.00  0.00    +0.115 A 
BRANCH  23  24
ATOM     24  O   UNL     1     -17.178 -14.451 -13.175  1.00  0.00    -0.508 OA
ATOM     25  H   UNL     1     -17.214 -13.857 -13.942  1.00  0.00    +0.293 HD
ENDBRANCH  23  24
ENDBRANCH  10  18
BRANCH  17  26
ATOM     26  O   UNL     1     -23.917 -23.720 -15.273  1.00  0.00    -0.508 OA
ATOM     27  H   UNL     1     -24.538 -24.019 -14.588  1.00  0.00    +0.293 HD
ENDBRANCH  17  26
ENDBRANCH   7   9
ENDBRANCH   1   7
BRANCH   4  28
ATOM     28  O   UNL     1     -22.895 -13.858  -9.696  1.00  0.00    -0.492 OA
BRANCH  28  29
ATOM     29  C   UNL     1     -21.634 -13.696  -9.041  1.00  0.00    +0.245 C 
BRANCH  29  30
ATOM     30  C   UNL     1     -20.590 -14.760  -9.448  1.00  0.00    +0.126 C 
BRANCH  30  31
ATOM     31  N   UNL     1     -19.970 -15.499  -8.330  1.00  0.00    -0.300 NA
ATOM     32  C   UNL     1     -20.936 -15.761  -7.251  1.00  0.00    +0.084 C 
ATOM     33  C   UNL     1     -19.287 -16.737  -8.724  1.00  0.00    +0.084 C 
ATOM     34  C   UNL     1     -21.952 -16.858  -7.580  1.00  0.00    +0.016 C 
ATOM     35  C   UNL     1     -20.237 -17.870  -9.118  1.00  0.00    +0.016 C 
ATOM     36  C   UNL     1     -21.256 -18.144  -8.016  1.00  0.00    +0.003 C 
ENDBRANCH  30  31
ENDBRANCH  29  30
ENDBRANCH  28  29
ENDBRANCH   4  28
TORSDOF 9
ENDMDL
MODEL 7
REMARK VINA RESULT:    -8.398      3.952      6.970
REMARK INTER + INTRA:         -14.004
REMARK INTER:                 -12.900
REMARK INTRA:                  -1.104
REMARK UNBOUND:                -1.678
REMARK SMILES O=C(c1ccc(OCCN2CCCCC2)cc1)c1c(-c2ccc(O)cc2)sc2cc(O)ccc12
REMARK SMILES IDX 3 1 4 2 5 3 6 4 16 5 17 6 2 7 1 8 18 9 19 10 34 11 27 12
REMARK SMILES IDX 28 13 33 14 29 15 32 16 30 17 20 18 21 19 26 20 22 21 25 22
REMARK SMILES IDX 23 23 24 24 31 26 7 28 8 29 9 30 10 31 11 32 15 33 12 34
REMARK SMILES IDX 14 35 13 36
REMARK H PARENT 24 25 31 27
ROOT
ATOM      1  C   UNL     1     -21.509 -16.894 -13.071  1.00  0.00    +0.023 A 
ATOM      2  C   UNL     1     -21.531 -17.440 -14.360  1.00  0.00    +0.016 A 
ATOM      3  C   UNL     1     -22.748 -17.680 -15.007  1.00  0.00    +0.047 A 
ATOM      4  C   UNL     1     -23.948 -17.377 -14.366  1.00  0.00    +0.119 A 
ATOM      5  C   UNL     1     -23.927 -16.870 -13.065  1.00  0.00    +0.047 A 
ATOM      6  C   UNL     1     -22.715 -16.626 -12.415  1.00  0.00    +0.016 A 
ENDROOT
BRANCH   1   7
ATOM      7  C   UNL     1     -20.188 -16.655 -12.421  1.00  0.00    +0.195 C 
ATOM      8  O   UNL     1     -19.174 -16.639 -13.114  1.00  0.00    -0.289 OA
BRANCH   7   9
ATOM      9  C   UNL     1     -20.129 -16.463 -10.972  1.00  0.00    +0.049 A 
ATOM     10  C   UNL     1     -19.735 -17.446 -10.075  1.00  0.00    +0.047 A 
ATOM     11  C   UNL     1     -20.519 -15.240 -10.301  1.00  0.00    +0.005 A 
ATOM     12  S   UNL     1     -19.744 -16.875  -8.465  1.00  0.00    -0.134 S 
ATOM     13  C   UNL     1     -20.339 -15.331  -8.919  1.00  0.00    +0.039 A 
ATOM     14  C   UNL     1     -21.017 -14.016 -10.823  1.00  0.00    +0.014 A 
ATOM     15  C   UNL     1     -20.630 -14.253  -8.062  1.00  0.00    +0.065 A 
ATOM     16  C   UNL     1     -21.313 -12.942  -9.979  1.00  0.00    +0.047 A 
ATOM     17  C   UNL     1     -21.116 -13.071  -8.615  1.00  0.00    +0.117 A 
BRANCH  10  18
ATOM     18  C   UNL     1     -19.373 -18.845 -10.326  1.00  0.00    -0.007 A 
ATOM     19  C   UNL     1     -19.071 -19.693  -9.249  1.00  0.00    +0.013 A 
ATOM     20  C   UNL     1     -19.347 -19.364 -11.628  1.00  0.00    +0.013 A 
ATOM     21  C   UNL     1     -18.747 -21.035  -9.468  1.00  0.00    +0.047 A 
ATOM     22  C   UNL     1     -19.026 -20.705 -11.847  1.00  0.00    +0.047 A 
ATOM     23  C   UNL     1     -18.728 -21.528 -10.769  1.00  0.00    +0.115 A 
BRANCH  23  24
ATOM     24  O   UNL     1     -18.418 -22.831 -11.028  1.00  0.00    -0.508 OA
ATOM     25  H   UNL     1     -19.242 -23.345 -11.049  1.00  0.00    +0.293 HD
ENDBRANCH  23  24
ENDBRANCH  10  18
BRANCH  17  26
ATOM     26  O   UNL     1     -21.392 -12.045  -7.760  1.00  0.00    -0.508 OA
ATOM     27  H   UNL     1     -20.948 -11.242  -8.081  1.00  0.00    +0.293 HD
ENDBRANCH  17  26
ENDBRANCH   7   9
ENDBRANCH   1   7
BRANCH   4  28
ATOM     28  O   UNL     1     -25.194 -17.580 -14.889  1.00  0.00    -0.492 OA
BRANCH  28  29
ATOM     29  C   UNL     1     -25.697 -16.594 -15.795  1.00  0.00    +0.245 C 
BRANCH  29  30
ATOM     30  C   UNL     1     -25.390 -15.144 -15.356  1.00  0.00    +0.126 C 
BRANCH  30  31
ATOM     31  N   UNL     1     -24.868 -14.259 -16.417  1.00  0.00    -0.300 NA
ATOM     32  C   UNL     1     -24.961 -12.841 -16.036  1.00  0.00    +0.084 C 
ATOM     33  C   UNL     1     -23.511 -14.586 -16.869  1.00  0.00    +0.084 C 
ATOM     34  C   UNL     1     -23.925 -12.411 -14.993  1.00  0.00    +0.016 C 
ATOM     35  C   UNL     1     -22.420 -14.231 -15.856  1.00  0.00    +0.016 C 
ATOM     36  C   UNL     1     -22.510 -12.767 -15.438  1.00  0.00    +0.003 C 
ENDBRANCH  30  31
ENDBRANCH  29  30
ENDBRANCH  28  29
ENDBRANCH   4  28
TORSDOF 9
ENDMDL
MODEL 8
REMARK VINA RESULT:    -8.101      2.550      3.608
REMARK INTER + INTRA:         -13.567
REMARK INTER:                 -11.417
REMARK INTRA:                  -2.150
REMARK UNBOUND:                -1.678
REMARK SMILES O=C(c1ccc(OCCN2CCCCC2)cc1)c1c(-c2ccc(O)cc2)sc2cc(O)ccc12
REMARK SMILES IDX 3 1 4 2 5 3 6 4 16 5 17 6 2 7 1 8 18 9 19 10 34 11 27 12
REMARK SMILES IDX 28 13 33 14 29 15 32 16 30 17 20 18 21 19 26 20 22 21 25 22
REMARK SMILES IDX 23 23 24 24 31 26 7 28 8 29 9 30 10 31 11 32 15 33 12 34
REMARK SMILES IDX 14 35 13 36
REMARK H PARENT 24 25 31 27
ROOT
ATOM      1  C   UNL     1     -19.400 -18.310 -11.609  1.00  0.00    +0.023 A 
ATOM      2  C   UNL     1     -19.448 -17.999 -12.974  1.00  0.00    +0.016 A 
ATOM      3  C   UNL     1     -19.476 -19.017 -13.932  1.00  0.00    +0.047 A 
ATOM      4  C   UNL     1     -19.454 -20.352 -13.531  1.00  0.00    +0.119 A 
ATOM      5  C   UNL     1     -19.366 -20.662 -12.172  1.00  0.00    +0.047 A 
ATOM      6  C   UNL     1     -19.339 -19.650 -11.210  1.00  0.00    +0.016 A 
ENDROOT
BRANCH   1   7
ATOM      7  C   UNL     1     -19.372 -17.192 -10.623  1.00  0.00    +0.195 C 
ATOM      8  O   UNL     1     -18.292 -16.805 -10.186  1.00  0.00    -0.289 OA
BRANCH   7   9
ATOM      9  C   UNL     1     -20.634 -16.595 -10.186  1.00  0.00    +0.049 A 
ATOM     10  C   UNL     1     -21.314 -15.613 -10.893  1.00  0.00    +0.047 A 
ATOM     11  C   UNL     1     -21.298 -16.926  -8.942  1.00  0.00    +0.005 A 
ATOM     12  S   UNL     1     -22.771 -15.168 -10.120  1.00  0.00    -0.134 S 
ATOM     13  C   UNL     1     -22.494 -16.221  -8.793  1.00  0.00    +0.039 A 
ATOM     14  C   UNL     1     -20.933 -17.833  -7.911  1.00  0.00    +0.014 A 
ATOM     15  C   UNL     1     -23.324 -16.398  -7.669  1.00  0.00    +0.065 A 
ATOM     16  C   UNL     1     -21.748 -18.012  -6.789  1.00  0.00    +0.047 A 
ATOM     17  C   UNL     1     -22.928 -17.297  -6.682  1.00  0.00    +0.117 A 
BRANCH  10  18
ATOM     18  C   UNL     1     -20.933 -14.923 -12.130  1.00  0.00    -0.007 A 
ATOM     19  C   UNL     1     -21.701 -15.093 -13.291  1.00  0.00    +0.013 A 
ATOM     20  C   UNL     1     -19.821 -14.069 -12.170  1.00  0.00    +0.013 A 
ATOM     21  C   UNL     1     -21.366 -14.425 -14.472  1.00  0.00    +0.047 A 
ATOM     22  C   UNL     1     -19.487 -13.400 -13.349  1.00  0.00    +0.047 A 
ATOM     23  C   UNL     1     -20.259 -13.584 -14.489  1.00  0.00    +0.115 A 
BRANCH  23  24
ATOM     24  O   UNL     1     -19.896 -12.911 -15.619  1.00  0.00    -0.508 OA
ATOM     25  H   UNL     1     -20.110 -13.463 -16.388  1.00  0.00    +0.293 HD
ENDBRANCH  23  24
ENDBRANCH  10  18
BRANCH  17  26
ATOM     26  O   UNL     1     -23.750 -17.446  -5.603  1.00  0.00    -0.508 OA
ATOM     27  H   UNL     1     -23.303 -18.002  -4.944  1.00  0.00    +0.293 HD
ENDBRANCH  17  26
ENDBRANCH   7   9
ENDBRANCH   1   7
BRANCH   4  28
ATOM     28  O   UNL     1     -19.463 -21.428 -14.372  1.00  0.00    -0.492 OA
BRANCH  28  29
ATOM     29  C   UNL     1     -20.695 -21.742 -15.027  1.00  0.00    +0.245 C 
BRANCH  29  30
ATOM     30  C   UNL     1     -21.928 -21.093 -14.359  1.00  0.00    +0.126 C 
BRANCH  30  31
ATOM     31  N   UNL     1     -22.820 -20.345 -15.268  1.00  0.00    -0.300 NA
ATOM     32  C   UNL     1     -24.234 -20.687 -15.045  1.00  0.00    +0.084 C 
ATOM     33  C   UNL     1     -22.630 -18.890 -15.244  1.00  0.00    +0.084 C 
ATOM     34  C   UNL     1     -24.823 -20.085 -13.766  1.00  0.00    +0.016 C 
ATOM     35  C   UNL     1     -23.150 -18.219 -13.972  1.00  0.00    +0.016 C 
ATOM     36  C   UNL     1     -24.611 -18.575 -13.716  1.00  0.00    +0.003 C 
ENDBRANCH  30  31
ENDBRANCH  29  30
ENDBRANCH  28  29
ENDBRANCH   4  28
TORSDOF 9
ENDMDL
MODEL 9
REMARK VINA RESULT:    -7.931      2.477      5.411
REMARK INTER + INTRA:         -13.318
REMARK INTER:                 -13.276
REMARK INTRA:                  -0.042
REMARK UNBOUND:                -1.678
REMARK SMILES O=C(c1ccc(OCCN2CCCCC2)cc1)c1c(-c2ccc(O)cc2)sc2cc(O)ccc12
REMARK SMILES IDX 3 1 4 2 5 3 6 4 16 5 17 6 2 7 1 8 18 9 19 10 34 11 27 12
REMARK SMILES IDX 28 13 33 14 29 15 32 16 30 17 20 18 21 19 26 20 22 21 25 22
REMARK SMILES IDX 23 23 24 24 31 26 7 28 8 29 9 30 10 31 11 32 15 33 12 34
REMARK SMILES IDX 14 35 13 36
REMARK H PARENT 24 25 31 27
ROOT
ATOM      1  C   UNL     1     -19.245 -18.444 -11.389  1.00  0.00    +0.023 A 
ATOM      2  C   UNL     1     -19.423 -18.394 -12.777  1.00  0.00    +0.016 A 
ATOM      3  C   UNL     1     -19.522 -19.574 -13.521  1.00  0.00    +0.047 A 
ATOM      4  C   UNL     1     -19.441 -20.810 -12.881  1.00  0.00    +0.119 A 
ATOM      5  C   UNL     1     -19.223 -20.860 -11.503  1.00  0.00    +0.047 A 
ATOM      6  C   UNL     1     -19.125 -19.685 -10.753  1.00  0.00    +0.016 A 
ENDROOT
BRANCH   1   7
ATOM      7  C   UNL     1     -19.146 -17.160 -10.637  1.00  0.00    +0.195 C 
ATOM      8  O   UNL     1     -18.382 -17.085  -9.678  1.00  0.00    -0.289 OA
BRANCH   7   9
ATOM      9  C   UNL     1     -19.975 -16.027 -11.047  1.00  0.00    +0.049 A 
ATOM     10  C   UNL     1     -21.063 -15.560 -10.324  1.00  0.00    +0.047 A 
ATOM     11  C   UNL     1     -19.785 -15.290 -12.279  1.00  0.00    +0.005 A 
ATOM     12  S   UNL     1     -21.783 -14.200 -11.067  1.00  0.00    -0.134 S 
ATOM     13  C   UNL     1     -20.705 -14.247 -12.403  1.00  0.00    +0.039 A 
ATOM     14  C   UNL     1     -18.832 -15.456 -13.320  1.00  0.00    +0.014 A 
ATOM     15  C   UNL     1     -20.697 -13.378 -13.511  1.00  0.00    +0.065 A 
ATOM     16  C   UNL     1     -18.819 -14.601 -14.426  1.00  0.00    +0.047 A 
ATOM     17  C   UNL     1     -19.746 -13.576 -14.508  1.00  0.00    +0.117 A 
BRANCH  10  18
ATOM     18  C   UNL     1     -21.660 -16.089  -9.093  1.00  0.00    -0.007 A 
ATOM     19  C   UNL     1     -20.967 -15.981  -7.878  1.00  0.00    +0.013 A 
ATOM     20  C   UNL     1     -22.931 -16.683  -9.100  1.00  0.00    +0.013 A 
ATOM     21  C   UNL     1     -21.531 -16.458  -6.691  1.00  0.00    +0.047 A 
ATOM     22  C   UNL     1     -23.495 -17.158  -7.915  1.00  0.00    +0.047 A 
ATOM     23  C   UNL     1     -22.792 -17.044  -6.722  1.00  0.00    +0.115 A 
BRANCH  23  24
ATOM     24  O   UNL     1     -23.380 -17.522  -5.588  1.00  0.00    -0.508 OA
ATOM     25  H   UNL     1     -22.708 -17.986  -5.064  1.00  0.00    +0.293 HD
ENDBRANCH  23  24
ENDBRANCH  10  18
BRANCH  17  26
ATOM     26  O   UNL     1     -19.763 -12.721 -15.570  1.00  0.00    -0.508 OA
ATOM     27  H   UNL     1     -19.325 -13.150 -16.324  1.00  0.00    +0.293 HD
ENDBRANCH  17  26
ENDBRANCH   7   9
ENDBRANCH   1   7
BRANCH   4  28
ATOM     28  O   UNL     1     -19.509 -22.025 -13.502  1.00  0.00    -0.492 OA
BRANCH  28  29
ATOM     29  C   UNL     1     -20.194 -22.087 -14.756  1.00  0.00    +0.245 C 
BRANCH  29  30
ATOM     30  C   UNL     1     -21.355 -21.074 -14.871  1.00  0.00    +0.126 C 
BRANCH  30  31
ATOM     31  N   UNL     1     -22.608 -21.469 -14.197  1.00  0.00    -0.300 NA
ATOM     32  C   UNL     1     -23.627 -20.411 -14.282  1.00  0.00    +0.084 C 
ATOM     33  C   UNL     1     -23.159 -22.754 -14.643  1.00  0.00    +0.084 C 
ATOM     34  C   UNL     1     -24.267 -20.275 -15.666  1.00  0.00    +0.016 C 
ATOM     35  C   UNL     1     -23.773 -22.712 -16.044  1.00  0.00    +0.016 C 
ATOM     36  C   UNL     1     -24.822 -21.609 -16.153  1.00  0.00    +0.003 C 
ENDBRANCH  30  31
ENDBRANCH  29  30
ENDBRANCH  28  29
ENDBRANCH   4  28
TORSDOF 9
ENDMDL
