REMARK SMILES CCN(CCCC(C)C1=Nc2ccccc2C1)C(=O)C(OC)c1ccc(F)cc1
REMARK SMILES IDX 3 1 2 2 1 3 4 4 5 5 6 6 7 7 8 8 9 9 10 10 17 11 11 12 16 13
REMARK SMILES IDX 12 14 15 15 13 16 14 17 18 18 19 19 20 20 21 21 22 22 23 23
REMARK SMILES IDX 24 24 29 25 25 26 28 27 26 28 27 29
REMARK H PARENT
ROOT
ATOM      1  N   UNL     1      -1.163  -0.839   1.985  1.00  0.00    -0.340 N 
ENDROOT
BRANCH   1   2
ATOM      2  C   UNL     1      -0.626  -2.103   1.464  1.00  0.00    +0.116 C 
ATOM      3  C   UNL     1       0.434  -1.927   0.388  1.00  0.00    +0.027 C 
ENDBRANCH   1   2
BRANCH   1   4
ATOM      4  C   UNL     1      -0.410  -0.180   3.063  1.00  0.00    +0.119 C 
BRANCH   4   5
ATOM      5  C   UNL     1       0.803   0.639   2.608  1.00  0.00    +0.022 C 
BRANCH   5   6
ATOM      6  C   UNL     1       0.450   1.817   1.692  1.00  0.00    +0.011 C 
BRANCH   6   7
ATOM      7  C   UNL     1       1.661   2.515   1.047  1.00  0.00    +0.031 C 
ATOM      8  C   UNL     1       2.725   2.952   2.047  1.00  0.00    +0.014 C 
BRANCH   7   9
ATOM      9  C   UNL     1       2.235   1.639  -0.043  1.00  0.00    +0.026 C 
ATOM     10  N   UNL     1       3.234   0.813   0.119  1.00  0.00    -0.257 NA
ATOM     11  C   UNL     1       1.609   1.626  -1.438  1.00  0.00    +0.089 C 
ATOM     12  C   UNL     1       3.393   0.162  -1.116  1.00  0.00    +0.066 A 
ATOM     13  C   UNL     1       2.464   0.586  -2.070  1.00  0.00    -0.017 A 
ATOM     14  C   UNL     1       4.323  -0.812  -1.420  1.00  0.00    +0.028 A 
ATOM     15  C   UNL     1       2.431   0.053  -3.345  1.00  0.00    +0.006 A 
ATOM     16  C   UNL     1       4.310  -1.361  -2.706  1.00  0.00    +0.002 A 
ATOM     17  C   UNL     1       3.370  -0.932  -3.660  1.00  0.00    +0.000 A 
ENDBRANCH   7   9
ENDBRANCH   6   7
ENDBRANCH   5   6
ENDBRANCH   4   5
ENDBRANCH   1   4
BRANCH   1  18
ATOM     18  C   UNL     1      -2.320  -0.201   1.514  1.00  0.00    +0.256 C 
ATOM     19  O   UNL     1      -2.663   0.897   1.972  1.00  0.00    -0.271 OA
BRANCH  18  20
ATOM     20  C   UNL     1      -3.203  -0.903   0.426  1.00  0.00    +0.237 C 
BRANCH  20  21
ATOM     21  O   UNL     1      -4.562  -0.448   0.390  1.00  0.00    -0.367 OA
ATOM     22  C   UNL     1      -5.312  -0.860   1.523  1.00  0.00    +0.196 C 
ENDBRANCH  20  21
BRANCH  20  23
ATOM     23  C   UNL     1      -2.661  -0.650  -0.974  1.00  0.00    -0.010 A 
ATOM     24  C   UNL     1      -2.314  -1.722  -1.814  1.00  0.00    +0.010 A 
ATOM     25  C   UNL     1      -2.529   0.663  -1.461  1.00  0.00    +0.010 A 
ATOM     26  C   UNL     1      -1.810  -1.482  -3.094  1.00  0.00    +0.039 A 
ATOM     27  C   UNL     1      -2.037   0.900  -2.745  1.00  0.00    +0.039 A 
ATOM     28  C   UNL     1      -1.673  -0.175  -3.545  1.00  0.00    +0.123 A 
ATOM     29  F   UNL     1      -1.182   0.052  -4.771  1.00  0.00    -0.207 F 
ENDBRANCH  20  23
ENDBRANCH  18  20
ENDBRANCH   1  18
TORSDOF 10
