REMARK SMILES O=C(O)COc1ccc(Cl)cc1C(=O)c1cccs1
REMARK SMILES IDX 5 1 6 2 9 3 11 4 8 5 12 6 7 7 10 8 13 9 14 10 15 11 16 12
REMARK SMILES IDX 19 13 17 14 18 15 4 16 2 17 1 18 3 19
REMARK H PARENT 3 20
ROOT
ATOM      1  O   UNL     1      -1.154  -0.598  -1.027  1.00  0.00    -0.481 OA
ENDROOT
BRANCH   1   2
ATOM      2  C   UNL     1      -0.706   0.636  -0.642  1.00  0.00    +0.131 A 
ATOM      3  C   UNL     1       0.241   3.165   0.047  1.00  0.00    +0.042 A 
ATOM      4  C   UNL     1       0.674   2.054   0.768  1.00  0.00    +0.036 A 
ATOM      5  C   UNL     1      -0.644   3.019  -1.023  1.00  0.00    +0.024 A 
ATOM      6  C   UNL     1       0.209   0.786   0.405  1.00  0.00    +0.067 A 
ATOM      7  C   UNL     1      -1.114   1.751  -1.373  1.00  0.00    +0.049 A 
ATOM      8 Cl   UNL     1       0.811   4.731   0.474  1.00  0.00    -0.084 Cl
BRANCH   6   9
ATOM      9  C   UNL     1       0.668  -0.391   1.164  1.00  0.00    +0.206 C 
ATOM     10  O   UNL     1      -0.091  -0.792   2.047  1.00  0.00    -0.288 OA
BRANCH   9  11
ATOM     11  C   UNL     1       1.955  -1.003   0.868  1.00  0.00    +0.075 A 
ATOM     12  C   UNL     1       2.529  -2.066   1.543  1.00  0.00    +0.024 A 
ATOM     13  S   UNL     1       2.962  -0.475  -0.413  1.00  0.00    -0.140 S 
ATOM     14  C   UNL     1       3.796  -2.438   1.009  1.00  0.00    +0.012 A 
ATOM     15  C   UNL     1       4.152  -1.650  -0.061  1.00  0.00    +0.065 A 
ENDBRANCH   9  11
ENDBRANCH   6   9
ENDBRANCH   1   2
BRANCH   1  16
ATOM     16  C   UNL     1      -2.329  -0.979  -0.303  1.00  0.00    +0.351 C 
BRANCH  16  17
ATOM     17  C   UNL     1      -3.593  -0.802  -1.126  1.00  0.00    +0.341 C 
ATOM     18  O   UNL     1      -3.701  -0.303  -2.235  1.00  0.00    -0.248 OA
BRANCH  17  19
ATOM     19  O   UNL     1      -4.689  -1.264  -0.485  1.00  0.00    -0.479 OA
ATOM     20  H   UNL     1      -5.422  -1.095  -1.114  1.00  0.00    +0.296 HD
ENDBRANCH  17  19
ENDBRANCH  16  17
ENDBRANCH   1  16
TORSDOF 6
