REMARK SMILES Fc1ccc(C2CCNC2COc2ccc3c(c2)OCO3)cc1
REMARK SMILES IDX 6 1 7 2 8 3 9 4 10 5 5 7 2 8 3 9 23 10 4 11 22 12 1 13 11 14
REMARK SMILES IDX 12 15 13 16 18 17 14 18 17 19 15 20 16 21 19 22 21 23 20 24
REMARK H PARENT 9 6
ROOT
ATOM      1  C   UNL     1      -2.163   1.317   0.177  1.00  0.00    +0.041 C 
ATOM      2  C   UNL     1      -3.031   1.879  -0.947  1.00  0.00    +0.025 C 
ATOM      3  C   UNL     1      -2.092   2.873  -1.603  1.00  0.00    +0.082 C 
ATOM      4  N   UNL     1      -0.815   2.168  -1.635  1.00  0.00    -0.310 NA
ATOM      5  C   UNL     1      -0.746   1.297  -0.438  1.00  0.00    +0.099 C 
ATOM      6  H   UNL     1      -0.021   2.807  -1.673  1.00  0.00    +0.123 HD
ENDROOT
BRANCH   1   7
ATOM      7  C   UNL     1      -2.626  -0.014   0.728  1.00  0.00    -0.043 A 
ATOM      8  C   UNL     1      -3.460  -2.463   1.792  1.00  0.00    +0.123 A 
ATOM      9  C   UNL     1      -3.371  -1.351   2.619  1.00  0.00    +0.039 A 
ATOM     10  C   UNL     1      -3.142  -2.376   0.443  1.00  0.00    +0.039 A 
ATOM     11  C   UNL     1      -2.955  -0.129   2.089  1.00  0.00    +0.007 A 
ATOM     12  C   UNL     1      -2.726  -1.154  -0.088  1.00  0.00    +0.007 A 
ATOM     13  F   UNL     1      -3.858  -3.636   2.302  1.00  0.00    -0.207 F 
ENDBRANCH   1   7
BRANCH   5  14
ATOM     14  C   UNL     1       0.313   1.747   0.588  1.00  0.00    +0.249 C 
BRANCH  14  15
ATOM     15  O   UNL     1       1.635   1.675   0.047  1.00  0.00    -0.492 OA
BRANCH  15  16
ATOM     16  C   UNL     1       2.318   0.493   0.140  1.00  0.00    +0.123 A 
ATOM     17  C   UNL     1       3.637   0.558  -0.327  1.00  0.00    +0.097 A 
ATOM     18  C   UNL     1       1.811  -0.723   0.636  1.00  0.00    +0.050 A 
ATOM     19  C   UNL     1       4.405  -0.586  -0.278  1.00  0.00    +0.169 A 
ATOM     20  C   UNL     1       2.614  -1.871   0.674  1.00  0.00    +0.054 A 
ATOM     21  C   UNL     1       3.907  -1.769   0.211  1.00  0.00    +0.166 A 
ATOM     22  O   UNL     1       5.698  -0.696  -0.686  1.00  0.00    -0.453 OA
ATOM     23  O   UNL     1       4.821  -2.774   0.172  1.00  0.00    -0.454 OA
ATOM     24  C   UNL     1       5.953  -2.087  -0.401  1.00  0.00    +0.468 C 
ENDBRANCH  15  16
ENDBRANCH  14  15
ENDBRANCH   5  14
TORSDOF 4
