REMARK SMILES CS(=O)(=O)CCNCc1ccc(-c2ccc3ncnc(Nc4ccc(OCc5cccc(F)c5)c(Cl)c4)c3c2)o1
REMARK SMILES IDX 13 1 14 2 15 3 16 4 17 5 18 6 19 7 20 8 38 9 39 10 12 11
REMARK SMILES IDX 9 12 10 13 40 14 11 15 8 16 7 17 6 19 5 20 2 21 3 22 4 23
REMARK SMILES IDX 1 24 21 25 22 27 37 28 23 29 35 30 24 31 25 32 36 33 26 34
REMARK SMILES IDX 27 35 28 36 34 37 29 38 32 39 30 40 31 41 33 42
REMARK H PARENT 7 18 21 26
ROOT
ATOM      1  C   UNL     1       2.038  -1.229   0.088  1.00  0.00    +0.018 A 
ATOM      2  C   UNL     1       2.558  -2.360  -0.544  1.00  0.00    +0.014 A 
ATOM      3  C   UNL     1       1.709  -3.345  -1.063  1.00  0.00    +0.030 A 
ATOM      4  C   UNL     1       0.328  -3.240  -0.983  1.00  0.00    +0.076 A 
ATOM      5  N   UNL     1      -0.418  -4.225  -1.489  1.00  0.00    -0.236 NA
ATOM      6  C   UNL     1      -1.743  -4.089  -1.383  1.00  0.00    +0.224 A 
ATOM      7  N   UNL     1      -2.388  -3.057  -0.833  1.00  0.00    -0.219 NA
ATOM      8  C   UNL     1      -1.630  -2.062  -0.338  1.00  0.00    +0.141 A 
ATOM      9  C   UNL     1      -0.221  -2.107  -0.372  1.00  0.00    +0.044 A 
ATOM     10  C   UNL     1       0.644  -1.114   0.168  1.00  0.00    +0.026 A 
ENDROOT
BRANCH   1  11
ATOM     11  C   UNL     1       2.909  -0.201   0.652  1.00  0.00    +0.134 A 
ATOM     12  C   UNL     1       4.893   0.686   1.030  1.00  0.00    +0.118 A 
ATOM     13  C   UNL     1       3.974   1.523   1.626  1.00  0.00    +0.047 A 
ATOM     14  O   UNL     1       4.251  -0.365   0.445  1.00  0.00    -0.460 OA
ATOM     15  C   UNL     1       2.700   0.955   1.381  1.00  0.00    +0.051 A 
BRANCH  12  16
ATOM     16  C   UNL     1       6.377   0.703   0.923  1.00  0.00    +0.157 C 
BRANCH  16  17
ATOM     17  N   UNL     1       6.817   1.774   0.024  1.00  0.00    -0.309 NA
ATOM     18  H   UNL     1       6.489   2.663   0.402  1.00  0.00    +0.123 HD
BRANCH  17  19
ATOM     19  C   UNL     1       8.276   1.821  -0.129  1.00  0.00    +0.097 C 
BRANCH  19  20
ATOM     20  C   UNL     1       8.784   0.799  -1.136  1.00  0.00    +0.152 C 
BRANCH  20  21
ATOM     21  S   UNL     1      10.563   0.834  -1.283  1.00  0.00    +0.148 S 
ATOM     22  O   UNL     1      11.006   2.214  -1.270  1.00  0.00    -0.229 OA
ATOM     23  O   UNL     1      10.930  -0.050  -2.373  1.00  0.00    -0.229 OA
ATOM     24  C   UNL     1      11.130   0.069   0.219  1.00  0.00    +0.158 C 
ENDBRANCH  20  21
ENDBRANCH  19  20
ENDBRANCH  17  19
ENDBRANCH  16  17
ENDBRANCH  12  16
ENDBRANCH   1  11
BRANCH   8  25
ATOM     25  N   UNL     1      -2.266  -0.915   0.216  1.00  0.00    -0.340 N 
ATOM     26  H   UNL     1      -1.924  -0.094  -0.274  1.00  0.00    +0.168 HD
BRANCH  25  27
ATOM     27  C   UNL     1      -3.622  -0.769   0.589  1.00  0.00    +0.041 A 
ATOM     28  C   UNL     1      -4.390  -1.838   1.072  1.00  0.00    +0.050 A 
ATOM     29  C   UNL     1      -4.188   0.516   0.607  1.00  0.00    +0.030 A 
ATOM     30  C   UNL     1      -5.709  -1.643   1.491  1.00  0.00    +0.085 A 
ATOM     31  C   UNL     1      -5.506   0.718   1.025  1.00  0.00    +0.050 A 
ATOM     32  C   UNL     1      -6.274  -0.367   1.441  1.00  0.00    +0.138 A 
ATOM     33 Cl   UNL     1      -6.601  -3.000   2.078  1.00  0.00    -0.080 Cl
BRANCH  32  34
ATOM     34  O   UNL     1      -7.552  -0.117   1.865  1.00  0.00    -0.487 OA
BRANCH  34  35
ATOM     35  C   UNL     1      -8.508  -0.392   0.831  1.00  0.00    +0.265 C 
BRANCH  35  36
ATOM     36  C   UNL     1      -8.948   0.898   0.182  1.00  0.00    -0.008 A 
ATOM     37  C   UNL     1      -8.643   1.164  -1.159  1.00  0.00    +0.046 A 
ATOM     38  C   UNL     1      -9.655   1.860   0.922  1.00  0.00    +0.007 A 
ATOM     39  C   UNL     1      -9.045   2.364  -1.737  1.00  0.00    +0.123 A 
ATOM     40  C   UNL     1     -10.055   3.061   0.331  1.00  0.00    +0.003 A 
ATOM     41  C   UNL     1      -9.750   3.313  -1.005  1.00  0.00    +0.039 A 
ATOM     42  F   UNL     1      -8.747   2.610  -3.019  1.00  0.00    -0.207 F 
ENDBRANCH  35  36
ENDBRANCH  34  35
ENDBRANCH  32  34
ENDBRANCH  25  27
ENDBRANCH   8  25
TORSDOF 11
