REMARK SMILES CC(=O)OC1C(=O)N(CCN(C)C)c2ccccc2SC1c1ccccc1
REMARK SMILES IDX 19 1 18 2 17 3 16 4 15 5 14 6 20 7 21 8 5 9 4 11 2 12 3 13
REMARK SMILES IDX 1 14 22 15 23 16 27 17 24 18 26 19 25 20 8 21 9 22 10 23
REMARK SMILES IDX 11 24 12 25 13 26 6 27 7 28
REMARK H PARENT
REMARK Flexibility Score:   44.900
ROOT
ATOM      1  C   UNL     1      -0.249  -0.949   2.454  1.00  0.00    +0.032 A 
ATOM      2  C   UNL     1      -0.072  -2.157   3.151  1.00  0.00    +0.017 A 
ATOM      3  C   UNL     1      -0.955  -3.219   2.976  1.00  0.00    +0.001 A 
ATOM      4  C   UNL     1      -2.039  -3.075   2.121  1.00  0.00    +0.002 A 
ATOM      5  C   UNL     1      -2.233  -1.874   1.431  1.00  0.00    +0.027 A 
ATOM      6  C   UNL     1      -1.337  -0.798   1.561  1.00  0.00    +0.057 A 
ENDROOT
BRANCH   1   7
ATOM      7  S   UNL     1       0.861   0.376   2.926  1.00  0.00    -0.111 SA
BRANCH   7   8
ATOM      8  C   UNL     1       1.697   0.712   1.321  1.00  0.00    +0.132 C 
BRANCH   8   9
ATOM      9  C   UNL     1       0.811   0.527   0.084  1.00  0.00    +0.283 CG0
ATOM     10  G   UNL     1      -0.537   1.220   0.322  1.00  0.00    +0.000 G0
BRANCH   9  11
ATOM     11  O   UNL     1       1.453   1.182  -1.036  1.00  0.00    -0.451 OA
BRANCH  11  12
ATOM     12  C   UNL     1       1.082   0.721  -2.260  1.00  0.00    +0.303 C 
ATOM     13  O   UNL     1       0.388  -0.263  -2.470  1.00  0.00    -0.253 OA
ATOM     14  C   UNL     1       1.678   1.580  -3.331  1.00  0.00    +0.139 C 
ENDBRANCH  11  12
ENDBRANCH   9  11
ENDBRANCH   8   9
BRANCH   8  15
ATOM     15  C   UNL     1       3.009  -0.067   1.247  1.00  0.00    -0.030 A 
ATOM     16  C   UNL     1       3.052  -1.438   0.939  1.00  0.00    +0.005 A 
ATOM     17  C   UNL     1       4.221   0.594   1.513  1.00  0.00    +0.005 A 
ATOM     18  C   UNL     1       4.270  -2.119   0.885  1.00  0.00    +0.000 A 
ATOM     19  C   UNL     1       5.437  -0.090   1.458  1.00  0.00    +0.000 A 
ATOM     20  C   UNL     1       5.461  -1.446   1.142  1.00  0.00    +0.000 A 
ENDBRANCH   8  15
ENDBRANCH   7   8
ENDBRANCH   1   7
BRANCH   6  21
ATOM     21  N   UNL     1      -1.567   0.413   0.822  1.00  0.00    -0.307 N 
BRANCH  21  22
ATOM     22  C   UNL     1      -2.945   0.880   0.609  1.00  0.00    +0.141 C 
BRANCH  22  23
ATOM     23  C   UNL     1      -3.513   0.553  -0.798  1.00  0.00    +0.106 C 
BRANCH  23  24
ATOM     24  N   UNL     1      -2.815   1.193  -1.926  1.00  0.00    -0.308 NA
ATOM     25  C   UNL     1      -3.104   0.502  -3.183  1.00  0.00    +0.105 C 
ATOM     26  C   UNL     1      -3.156   2.611  -2.044  1.00  0.00    +0.105 C 
ENDBRANCH  23  24
ENDBRANCH  22  23
ENDBRANCH  21  22
BRANCH  21  27
ATOM     27  C   UNL     1      -0.537   1.220   0.322  1.00  0.00    +0.269 CG0
ATOM     28  O   UNL     1      -0.691   2.412   0.042  1.00  0.00    -0.270 OA
ATOM     29  G   UNL     1       0.811   0.527   0.084  1.00  0.00    +0.000 G0
ENDBRANCH  21  27
ENDBRANCH   6  21
TORSDOF 6
