REMARK SMILES COc1c2ccoc2cc2oc(=O)ccc12
REMARK SMILES IDX 1 1 2 2 3 3 16 4 4 5 15 6 10 7 8 8 5 9 14 10 11 11 9 12 7 13
REMARK SMILES IDX 6 14 12 15 13 16
REMARK H PARENT
ROOT
ATOM      1  C   UNL     1      -1.558  -2.115  -1.134  1.00  0.00    +0.278 C 
ATOM      2  O   UNL     1      -1.100  -1.796   0.180  1.00  0.00    -0.495 OA
ENDROOT
BRANCH   2   3
ATOM      3  C   UNL     1      -0.556  -0.527   0.196  1.00  0.00    +0.140 A 
ATOM      4  C   UNL     1       0.844  -0.371   0.222  1.00  0.00    +0.061 A 
ATOM      5  C   UNL     1      -1.381   0.617   0.273  1.00  0.00    +0.063 A 
ATOM      6  C   UNL     1       1.764  -1.504   0.210  1.00  0.00    +0.023 C 
ATOM      7  C   UNL     1       1.384   0.917   0.262  1.00  0.00    +0.145 A 
ATOM      8  C   UNL     1      -0.773   1.868   0.314  1.00  0.00    +0.141 A 
ATOM      9  C   UNL     1      -2.779   0.871   0.333  1.00  0.00    +0.054 A 
ATOM     10  C   UNL     1       3.085  -1.298   0.220  1.00  0.00    +0.095 C 
ATOM     11  O   UNL     1       2.785   1.116   0.267  1.00  0.00    -0.422 OA
ATOM     12  C   UNL     1       0.602   2.075   0.300  1.00  0.00    +0.095 A 
ATOM     13  O   UNL     1      -1.715   2.850   0.374  1.00  0.00    -0.464 OA
ATOM     14  C   UNL     1      -2.927   2.237   0.389  1.00  0.00    +0.196 A 
ATOM     15  C   UNL     1       3.673   0.050   0.242  1.00  0.00    +0.336 C 
ATOM     16  O   UNL     1       4.888   0.205   0.238  1.00  0.00    -0.246 OA
ENDBRANCH   2   3
TORSDOF 1
